LAMMPS data file via write_data, version 29 Aug 2024, timestep = 200000, units = micro

9407 atoms
2 atom types
27870 bonds
1 bond types

-893.1999999999999 893.1999999999999 xlo xhi
-893.1999999999999 893.1999999999999 ylo yhi
-5 5 zlo zhi

Masses

1 31.06
2 31.06

Bond Coeffs # harmonic

1 1e-07 5.8

Atoms # bond

2995 1 2 130.10177137918956 -284.22153589848585 0 0 0 0
2996 1 2 135.78926449950217 -283.08468850046074 0 0 0 0
2997 1 2 141.4767576198148 -281.9478411024354 0 0 0 0
2998 1 2 147.16425074012741 -280.8109937044103 0 0 0 0
2999 1 2 152.85174386044002 -279.67414630638507 0 0 0 0
3000 1 2 158.53923698075263 -278.53729890835984 0 0 0 0
3001 1 2 164.22673010106524 -277.4004515103346 0 0 0 0
3002 1 2 169.91422322137788 -276.2636041123094 0 0 0 0
3003 1 2 175.6017163416905 -275.12675671428417 0 0 0 0
3004 1 2 181.2892094620031 -273.98990931625906 0 0 0 0
3005 1 2 186.97670258231574 -272.85306191823383 0 0 0 0
3006 1 2 192.66419570262832 -271.7162145202086 0 0 0 0
3007 1 2 198.35168882294096 -270.5793671221835 0 0 0 0
3008 1 2 204.03918194325357 -269.44251972415816 0 0 0 0
3009 1 2 209.72667506356618 -268.30567232613294 0 0 0 0
3010 1 2 215.4141681838788 -267.1688249281077 0 0 0 0
3011 1 2 221.1016613041914 -266.0319775300825 0 0 0 0
3144 1 2 103.5235134818835 -284.4118350182738 0 0 0 0
3145 1 2 109.21100660219611 -283.27498762024857 0 0 0 0
3146 1 2 114.89849972250873 -282.13814022222334 0 0 0 0
3147 1 2 120.58599284282135 -281.00129282419823 0 0 0 0
3148 1 2 126.27348596313396 -279.864445426173 0 0 0 0
3149 1 1 132.0379217143477 -278.3546735525171 0 0 0 0
3150 1 1 137.17665385781342 -277.5809326847098 0 0 0 0
3151 1 1 142.6126769280898 -276.84693092044324 0 0 0 0
3152 1 1 147.43328130092917 -275.6913568230198 0 0 0 0
3153 1 1 152.83294057184077 -275.1729283734402 0 0 0 0
3154 1 1 159.14944195901273 -273.39169069690377 0 0 0 0
3155 1 1 165.05074147870548 -272.2482085651966 0 0 0 0
3156 1 1 169.96974110426666 -270.72616469341114 0 0 0 0
3157 1 1 175.99257130688036 -269.69830724793536 0 0 0 0
3158 1 1 182.34903220128618 -268.66069727140166 0 0 0 0
3159 1 1 188.28368972680485 -266.9744321474065 0 0 0 0
3160 1 1 194.06580782316885 -266.48152971595016 0 0 0 0
3161 1 1 200.10966268608206 -264.7592243781372 0 0 0 0
3162 1 1 205.69316480246044 -263.91269887116374 0 0 0 0
3163 1 1 210.7939190633825 -261.9164379499655 0 0 0 0
3164 1 1 216.62500740584488 -261.4827630810456 0 0 0 0
3165 1 2 222.9608690084484 -260.5380396597444 0 0 0 0
3166 1 2 228.64836212876105 -259.4011922617192 0 0 0 0
3167 1 2 234.33585524907366 -258.2643448636941 0 0 0 0
3168 1 2 240.02334836938627 -257.12749746566885 0 0 0 0
3169 1 2 245.7108414896989 -255.99065006764366 0 0 0 0
3296 1 2 88.32024202121084 -282.3284403226136 0 0 0 0
3297 1 2 94.00773514152345 -281.19159292458835 0 0 0 0
3298 1 2 99.69522826183606 -280.0547455265631 0 0 0 0
3299 1 1 104.59860311941001 -279.34506841611153 0 0 0 0
3300 1 1 109.83856853333604 -278.22952238678977 0 0 0 0
3301 1 1 114.8529047234551 -276.3336339497619 0 0 0 0
3302 1 1 120.34967463234547 -275.55825154656947 0 0 0 0
3303 1 1 126.81386104446429 -274.49196090084547 0 0 0 0
3304 1 1 132.87527962695103 -272.45915472047506 0 0 0 0
3305 1 1 138.36360293514258 -272.09669890381826 0 0 0 0
3306 1 1 142.97000840623915 -271.81922740648184 0 0 0 0
3307 1 1 148.48990954386335 -271.0556276229835 0 0 0 0
3308 1 1 154.2570311088288 -269.8581770812486 0 0 0 0
3309 1 1 159.6314696785939 -267.73274690714965 0 0 0 0
3310 1 1 164.71474187765708 -266.8009971441135 0 0 0 0
3311 1 1 170.68778818732906 -266.0267097002591 0 0 0 0
3312 1 1 177.19281264470644 -264.4744948093706 0 0 0 0
3313 1 1 183.5994598477977 -263.3378378306611 0 0 0 0
3314 1 1 189.8050375095522 -261.67631900870214 0 0 0 0
3315 1 1 195.48585384363233 -261.064619637147 0 0 0 0
3316 1 1 200.69743048974726 -258.65851613485495 0 0 0 0
3317 1 1 206.18532145179918 -258.03543507456817 0 0 0 0
3318 1 1 212.26997038078542 -256.6719808364882 0 0 0 0
3319 1 1 218.32306641168148 -256.0336160638048 0 0 0 0
3320 1 1 224.64249577672695 -254.97831790742686 0 0 0 0
3321 1 1 230.86242078539155 -253.3506477244485 0 0 0 0
3322 1 1 236.4107418475411 -252.51873069839237 0 0 0 0
3323 1 1 241.50548118675698 -252.00582493076686 0 0 0 0
3324 1 2 247.57004938996408 -250.49671317790776 0 0 0 0
3325 1 2 253.2575425102767 -249.3598657798826 0 0 0 0
3326 1 2 258.9450356305893 -248.22301838185743 0 0 0 0
3447 1 2 73.11697056053819 -280.24504562695336 0 0 0 0
3448 1 2 78.8044636808508 -279.10819822892813 0 0 0 0
3449 1 2 84.49195680116341 -277.9713508309029 0 0 0 0
3450 1 1 89.68163790886688 -275.98011677623856 0 0 0 0
3451 1 1 95.01018685733787 -275.8465643632091 0 0 0 0
3452 1 1 99.3576459510053 -275.31126616253283 0 0 0 0
3453 1 1 104.67213364073416 -274.9488472373714 0 0 0 0
3454 1 1 110.00422568304799 -272.6503354638071 0 0 0 0
3455 1 1 115.52577333734457 -270.91642166922946 0 0 0 0
3456 1 1 121.45963322659937 -270.15632434685585 0 0 0 0
3457 1 1 127.98581134943055 -269.08127641019576 0 0 0 0
3458 1 1 134.41710358840166 -267.04333505928895 0 0 0 0
3459 1 1 139.91728664759452 -266.6163123931987 0 0 0 0
3460 1 1 144.88901978968724 -266.37869487241227 0 0 0 0
3461 1 1 150.01482074679666 -265.7746522713351 0 0 0 0
3462 1 1 155.1449197008679 -263.6795679532079 0 0 0 0
3463 1 1 160.62512388523098 -262.73854562630305 0 0 0 0
3464 1 1 166.39193372152045 -261.46650306769317 0 0 0 0
3465 1 1 172.08835239309917 -261.0711085162229 0 0 0 0
3466 1 1 178.47344553103775 -259.2470363883153 0 0 0 0
3467 1 1 184.5173400598725 -258.01629976990114 0 0 0 0
3468 1 1 189.99717829700086 -256.5289909366881 0 0 0 0
3469 1 1 195.98683527583717 -255.09266281317971 0 0 0 0
3470 1 1 201.9487596643231 -253.35623503408485 0 0 0 0
3471 1 1 207.7351624645909 -252.72816702699447 0 0 0 0
3472 1 1 213.65353795884099 -252.22587873220004 0 0 0 0
3473 1 1 219.92771906323128 -250.56829542081053 0 0 0 0
3474 1 1 225.8166624691226 -249.52518086731766 0 0 0 0
3475 1 1 230.71956258481907 -247.73339930379728 0 0 0 0
3476 1 1 237.186971549908 -246.90706769734797 0 0 0 0
3477 1 1 243.47092911201457 -246.3874089423191 0 0 0 0
3478 1 1 249.26804649285882 -244.3078280629019 0 0 0 0
3479 1 1 255.00727643002514 -243.72348098483283 0 0 0 0
3480 1 2 260.8042435308545 -242.7290814921215 0 0 0 0
3481 1 2 266.4917366511671 -241.5922340940963 0 0 0 0
3482 1 2 272.17922977147975 -240.4553866960711 0 0 0 0
3599 1 2 57.913698903857345 -278.16164995069084 0 0 0 0
3600 1 2 63.60119202416997 -277.0248025526656 0 0 0 0
3601 1 2 69.28868514448254 -275.8879551546404 0 0 0 0
3602 1 1 74.81941175172497 -275.25742174104914 0 0 0 0
3603 1 1 79.90914151031612 -272.87528068988075 0 0 0 0
3604 1 1 85.20675004952786 -272.0983185049497 0 0 0 0
3605 1 1 90.87006986704613 -270.94137337165193 0 0 0 0
3606 1 1 95.5229728535775 -271.05380348293374 0 0 0 0
3607 1 1 100.84637057129 -269.9831787108028 0 0 0 0
3608 1 1 106.02823911620304 -269.4815115320204 0 0 0 0
3609 1 1 110.99448011767188 -266.90241060669223 0 0 0 0
3610 1 1 116.72241422058468 -266.4029409426596 0 0 0 0
3611 1 1 123.00230136180532 -264.88466725596135 0 0 0 0
3612 1 1 128.95052289838068 -263.91049515975743 0 0 0 0
3613 1 1 133.76856749126765 -261.7795084980895 0 0 0 0
3614 1 1 139.73847405835016 -261.3705808251109 0 0 0 0
3615 1 1 146.59961507468253 -260.8087409002175 0 0 0 0
3616 1 1 152.13899678382444 -258.55364214984206 0 0 0 0
3617 1 1 157.63385115157539 -257.95536351441984 0 0 0 0
3618 1 1 162.69089977934027 -257.41621327394114 0 0 0 0
3619 1 1 168.60305730023688 -255.96478184555292 0 0 0 0
3620 1 1 173.69599981501995 -255.46957169373414 0 0 0 0
3621 1 1 178.92465253398402 -253.2658775242316 0 0 0 0
3622 1 1 184.28297039269904 -252.6410656005165 0 0 0 0
3623 1 1 190.9090871002615 -251.34370940197516 0 0 0 0
3624 1 1 197.26056348184082 -249.60517462579043 0 0 0 0
3625 1 1 203.27713253418779 -248.91837494278343 0 0 0 0
3626 1 1 209.3724500501112 -247.71610056691975 0 0 0 0
3627 1 1 215.14363733968628 -247.09358557614624 0 0 0 0
3628 1 1 220.2640016711639 -244.5871391876386 0 0 0 0
3629 1 1 225.6865832512742 -243.90464453014914 0 0 0 0
3630 1 1 232.02487489037074 -242.5354903380875 0 0 0 0
3631 1 1 238.68333812981754 -241.37205967358466 0 0 0 0
3632 1 1 244.84708347211813 -240.53490545848143 0 0 0 0
3633 1 1 250.93953082775153 -238.81227738828184 0 0 0 0
3634 1 1 256.7359793867868 -238.42767789188383 0 0 0 0
3635 1 1 262.6793746982203 -236.77855784316318 0 0 0 0
3636 1 1 268.10760833489786 -235.71354779063336 0 0 0 0
3637 1 2 274.0384374757367 -234.96144882573293 0 0 0 0
3638 1 2 279.72593059604935 -233.82460142770768 0 0 0 0
3639 1 2 285.413423716362 -232.6877540296825 0 0 0 0
3751 1 2 48.397920563497294 -274.9414078570053 0 0 0 0
3752 1 2 54.085413683809904 -273.8045604589802 0 0 0 0
3753 1 1 59.46476351324643 -272.31866117531285 0 0 0 0
3754 1 1 64.60834261561426 -271.82754246974696 0 0 0 0
3755 1 1 70.09631462532603 -271.5113878460697 0 0 0 0
3756 1 1 75.36609493692373 -269.43874579471833 0 0 0 0
3757 1 1 80.98125505413124 -267.28360098518556 0 0 0 0
3758 1 1 86.49316106111533 -266.63326649188195 0 0 0 0
3759 1 1 91.87140131259335 -266.28055327900023 0 0 0 0
3760 1 1 96.54453445437969 -265.7391882952935 0 0 0 0
3761 1 1 102.03750559687074 -264.05888846052267 0 0 0 0
3762 1 1 106.90113996258941 -263.3481027622371 0 0 0 0
3763 1 1 112.7424520366733 -261.69640387097456 0 0 0 0
3764 1 1 118.32771355939086 -261.1682965318912 0 0 0 0
3765 1 1 124.0815067381268 -259.3732899530989 0 0 0 0
3766 1 1 128.8931712384807 -258.0856675592971 0 0 0 0
3767 1 1 134.89324015485988 -256.7824369178834 0 0 0 0
3768 1 1 141.09586617931723 -256.04442862335213 0 0 0 0
3769 1 1 147.60921577687876 -254.86760138160025 0 0 0 0
3770 1 1 153.85581766804148 -252.9253369582339 0 0 0 0
3771 1 1 159.43006527925192 -252.44031017644025 0 0 0 0
3772 1 1 164.8987139376137 -251.49926301751498 0 0 0 0
3773 1 1 170.02388056665512 -249.77433058362095 0 0 0 0
3774 1 1 174.98215488171812 -249.26288943761327 0 0 0 0
3775 1 1 180.9328984764707 -247.75948310434862 0 0 0 0
3776 1 1 186.30959464814373 -247.22074544837713 0 0 0 0
3777 1 1 192.60227963831346 -246.13048062063157 0 0 0 0
3778 1 1 198.95734436047917 -244.44174687633887 0 0 0 0
3779 1 1 204.833866999052 -243.74701823751565 0 0 0 0
3780 1 1 210.63858494980752 -243.2208243200176 0 0 0 0
3781 1 1 216.05794075760295 -241.17439363877463 0 0 0 0
3782 1 1 221.5353478773019 -239.20564196868617 0 0 0 0
3783 1 1 227.2602034534665 -238.61648068420058 0 0 0 0
3784 1 1 233.49595004924473 -237.90630818681453 0 0 0 0
3785 1 1 240.24755734802434 -235.95856389139558 0 0 0 0
3786 1 1 246.28874266139266 -235.09504776328242 0 0 0 0
3787 1 1 252.43979532674626 -233.8151959479253 0 0 0 0
3788 1 1 258.2737219572339 -232.97316685770323 0 0 0 0
3789 1 1 263.2936764478142 -230.5177391499946 0 0 0 0
3790 1 1 268.9484759169045 -230.08425701735436 0 0 0 0
3791 1 1 274.95828581047766 -229.45212804372798 0 0 0 0
3792 1 1 281.13981514509663 -227.97033983446468 0 0 0 0
3793 1 2 287.2726316166271 -227.19381713994665 0 0 0 0
3794 1 2 292.96012473693975 -226.05696974192148 0 0 0 0
3904 1 2 38.88214222313725 -271.72116576331996 0 0 0 0
3905 1 2 44.569635343449875 -270.58431836529485 0 0 0 0
3906 1 1 49.537927847471934 -269.6932443792871 0 0 0 0
3907 1 1 54.358592743239114 -267.4690741900011 0 0 0 0
3908 1 1 59.523019960108364 -266.8346271037718 0 0 0 0
3909 1 1 64.15893943763702 -266.8423928397335 0 0 0 0
3910 1 1 69.28094523619079 -266.3865637783963 0 0 0 0
3911 1 1 75.1884084572537 -264.36100619980243 0 0 0 0
3912 1 1 80.23303760396104 -262.09839215417037 0 0 0 0
3913 1 1 85.68426217010082 -261.5401999734865 0 0 0 0
3914 1 1 91.77120931456056 -260.90954472664464 0 0 0 0
3915 1 1 97.87786580072053 -259.26299783060887 0 0 0 0
3916 1 1 103.61166947981707 -258.10242103352596 0 0 0 0
3917 1 1 108.40459224685793 -257.6154941720127 0 0 0 0
3918 1 1 114.13070222312031 -256.55057062175484 0 0 0 0
3919 1 1 119.7227175272492 -255.3779204516061 0 0 0 0
3920 1 1 125.10464013295115 -253.4237052986639 0 0 0 0
3921 1 1 130.3896920700222 -252.6783047833211 0 0 0 0
3922 1 1 136.16354994757089 -252.25724045093824 0 0 0 0
3923 1 1 142.54357156850403 -250.59246264608853 0 0 0 0
3924 1 1 148.61331207518265 -249.4471889928701 0 0 0 0
3925 1 1 153.57514354637414 -247.58651539527312 0 0 0 0
3926 1 1 160.08972648660782 -246.74701297146296 0 0 0 0
3927 1 1 165.8579423777661 -244.94114559148454 0 0 0 0
3928 1 1 171.6810822273532 -244.0563370863102 0 0 0 0
3929 1 1 177.39311016157876 -243.6871278045432 0 0 0 0
3930 1 1 183.503279423006 -242.19484588463916 0 0 0 0
3931 1 1 189.12024647222285 -241.63461471744947 0 0 0 0
3932 1 1 194.56005455884136 -240.08668363065902 0 0 0 0
3933 1 1 200.39201808488664 -239.10135361186724 0 0 0 0
3934 1 1 206.51549106203842 -238.2685757154879 0 0 0 0
3935 1 1 212.06888996224657 -237.27596314332433 0 0 0 0
3936 1 1 217.19359321257247 -235.28671173841866 0 0 0 0
3937 1 1 222.85673636986408 -234.79601381726286 0 0 0 0
3938 1 1 229.01866836858903 -233.40285931527146 0 0 0 0
3939 1 1 234.9102612541756 -232.775452425565 0 0 0 0
3940 1 1 241.10283842702862 -230.66150253973336 0 0 0 0
3941 1 1 247.61973218393294 -229.71145986146303 0 0 0 0
3942 1 1 253.51467561339956 -229.13982196789811 0 0 0 0
3943 1 1 258.7696876197355 -226.86106321929617 0 0 0 0
3944 1 1 264.58920710345836 -225.64660781953438 0 0 0 0
3945 1 1 270.485846909055 -224.7736431732937 0 0 0 0
3946 1 1 276.48032918824106 -224.27112097361984 0 0 0 0
3947 1 1 283.18270402749096 -222.4527318354599 0 0 0 0
3948 1 1 289.30664933467716 -221.26789380733402 0 0 0 0
3949 1 2 294.819332637205 -220.56303285218561 0 0 0 0
3950 1 2 300.5068257575176 -219.42618545416042 0 0 0 0
4055 1 2 23.67887056645641 -269.63777008705745 0 0 0 0
4056 1 2 29.366363686769034 -268.5009226890322 0 0 0 0
4057 1 2 35.053856807081615 -267.364075291007 0 0 0 0
4058 1 1 39.48377543740057 -266.63961030578463 0 0 0 0
4059 1 1 45.19452456563209 -265.0510563084466 0 0 0 0
4060 1 1 50.28791662720647 -263.8452200096824 0 0 0 0
4061 1 1 55.495851460788586 -261.7344331184562 0 0 0 0
4062 1 1 60.96581955242609 -261.42395770954965 0 0 0 0
4063 1 1 65.56488234685948 -261.2837568865718 0 0 0 0
4064 1 1 70.47595484580881 -261.0571168368883 0 0 0 0
4065 1 1 75.36931068084856 -258.3929057550375 0 0 0 0
4066 1 1 80.96844286388658 -257.46885952104884 0 0 0 0
4067 1 1 87.00358912451028 -256.19796161621974 0 0 0 0
4068 1 1 92.79247921186987 -255.57436931604047 0 0 0 0
4069 1 1 97.86205525787383 -253.3249540914049 0 0 0 0
4070 1 1 103.60190085526548 -252.65578567516602 0 0 0 0
4071 1 1 109.84517659339826 -251.83387845522682 0 0 0 0
4072 1 1 115.8045241644669 -250.11151337100276 0 0 0 0
4073 1 1 120.97042771202652 -249.3237923250991 0 0 0 0
4074 1 1 126.28492612444298 -248.61513728838264 0 0 0 0
4075 1 1 132.2317632640782 -247.29810936929462 0 0 0 0
4076 1 1 137.72205733535284 -246.86160577134746 0 0 0 0
4077 1 1 143.06312401266797 -244.58073454711575 0 0 0 0
4078 1 1 148.29728806289543 -243.911244714776 0 0 0 0
4079 1 1 154.65459649274055 -242.3706722967737 0 0 0 0
4080 1 1 161.04074127756695 -241.09921349684703 0 0 0 0
4081 1 1 167.2865316600529 -239.90084103212752 0 0 0 0
4082 1 1 173.4308746296143 -238.72039132594867 0 0 0 0
4083 1 1 179.1600524199831 -238.40261804594064 0 0 0 0
4084 1 1 184.9913150426068 -236.69138717493675 0 0 0 0
4085 1 1 190.09925112384298 -235.55692778548507 0 0 0 0
4086 1 1 195.8538072940706 -234.12867043063483 0 0 0 0
4087 1 1 201.8250177787881 -233.49054273989523 0 0 0 0
4088 1 1 208.06413732040852 -232.34826988757126 0 0 0 0
4089 1 1 214.2004709422224 -230.6104313057488 0 0 0 0
4090 1 1 219.74472273779554 -229.803045259064 0 0 0 0
4091 1 1 224.82406706287688 -229.547185675742 0 0 0 0
4092 1 1 231.0726579871228 -227.9747328143302 0 0 0 0
4093 1 1 236.4995303881628 -226.81247939599703 0 0 0 0
4094 1 1 242.4112735258164 -224.9745152633104 0 0 0 0
4095 1 1 248.12627350765803 -224.30752075397612 0 0 0 0
4096 1 1 254.49644773168632 -223.32800779237 0 0 0 0
4097 1 1 260.2742569649068 -221.3468660156269 0 0 0 0
4098 1 1 265.96426030563333 -220.94565302601748 0 0 0 0
4099 1 1 271.98739918128194 -220.13191425212042 0 0 0 0
4100 1 1 278.03888264185525 -218.95544016585936 0 0 0 0
4101 1 1 283.74574988892715 -216.84459279396395 0 0 0 0
4102 1 1 289.59325497648126 -215.89588747462045 0 0 0 0
4103 1 1 296.5611166031639 -215.4106614334802 0 0 0 0
4104 1 2 302.3660334617746 -213.93224758382232 0 0 0 0
4105 1 2 308.0535265820872 -212.79540018579712 0 0 0 0
4106 1 2 313.7410197023998 -211.65855278777184 0 0 0 0
4209 1 2 19.85058534640899 -265.2806805953468 0 0 0 0
4210 1 1 25.23512029114894 -263.68228189131037 0 0 0 0
4211 1 1 30.359997178864475 -263.2334950970556 0 0 0 0
4212 1 1 35.31211655077946 -262.3259000585661 0 0 0 0
4213 1 1 40.74122178051537 -261.27087046457126 0 0 0 0
4214 1 1 45.82708594376581 -258.98771461633646 0 0 0 0
4215 1 1 51.03416660777804 -258.0247893591512 0 0 0 0
4216 1 1 56.88847460855694 -257.0454653117655 0 0 0 0
4217 1 1 62.65606051741459 -255.927016346184 0 0 0 0
4218 1 1 67.58847667786578 -255.5247659415164 0 0 0 0
4219 1 1 72.0978543680678 -254.92911900058792 0 0 0 0
4220 1 1 77.1452824886579 -252.77645693584736 0 0 0 0
4221 1 1 82.5131549097185 -252.43986716415696 0 0 0 0
4222 1 1 88.45802877166484 -250.87242720796593 0 0 0 0
4223 1 1 93.37612037369438 -249.57150927681892 0 0 0 0
4224 1 1 98.96741313214605 -247.78977725531803 0 0 0 0
4225 1 1 104.91499733660213 -247.29794818367606 0 0 0 0
4226 1 1 111.36689993582465 -245.8895747842509 0 0 0 0
4227 1 1 117.61128300395013 -244.14039441116554 0 0 0 0
4228 1 1 123.07547020569329 -243.7361457075724 0 0 0 0
4229 1 1 128.09654213459206 -242.99868696338976 0 0 0 0
4230 1 1 134.08247125621764 -241.40558869265405 0 0 0 0
4231 1 1 139.53859214247166 -240.43750612099655 0 0 0 0
4232 1 1 145.2915699281144 -238.8050034603185 0 0 0 0
4233 1 1 150.2034062948073 -238.40961706830709 0 0 0 0
4234 1 1 156.47471410179045 -237.12624494281195 0 0 0 0
4235 1 1 162.70204731931804 -235.54802107765323 0 0 0 0
4236 1 1 168.8703139435813 -234.8290777399296 0 0 0 0
4237 1 1 175.04995898023142 -233.49404168850617 0 0 0 0
4238 1 1 180.68181156374322 -232.82387634498176 0 0 0 0
4239 1 1 185.71457488125938 -230.50750887065152 0 0 0 0
4240 1 1 191.27547544307228 -229.9399837295766 0 0 0 0
4241 1 1 197.25348106333672 -229.27718870746784 0 0 0 0
4242 1 1 203.52560740872883 -227.8419174012794 0 0 0 0
4243 1 1 209.8249878718665 -226.63697198335058 0 0 0 0
4244 1 1 215.7511632067488 -225.03237280840145 0 0 0 0
4245 1 1 221.92010984258198 -224.30703372006482 0 0 0 0
4246 1 1 227.51272119486237 -223.83395624713657 0 0 0 0
4247 1 1 232.86957937603506 -221.62238626971086 0 0 0 0
4248 1 1 238.6315214496533 -220.68108448121822 0 0 0 0
4249 1 1 244.70740313023862 -219.3926822646262 0 0 0 0
4250 1 1 250.54693962932583 -218.70188820380184 0 0 0 0
4251 1 1 256.1398215333245 -217.49957307199102 0 0 0 0
4252 1 1 262.1756878472467 -216.05658815376225 0 0 0 0
4253 1 1 267.7079961704778 -215.6644214957605 0 0 0 0
4254 1 1 273.35925044712616 -215.33964275148904 0 0 0 0
4255 1 1 278.8291933955416 -213.06664890661926 0 0 0 0
4256 1 1 284.5679994460661 -211.46168969537146 0 0 0 0
4257 1 1 290.9443353686957 -210.61570053691557 0 0 0 0
4258 1 1 297.92481522833623 -209.82452986826559 0 0 0 0
4259 1 1 303.61505029434426 -208.0771442603931 0 0 0 0
4260 1 1 309.35501428946384 -207.1679882137005 0 0 0 0
4261 1 2 315.600227602665 -206.16461589803598 0 0 0 0
4361 1 2 10.334807006048933 -262.06043850166134 0 0 0 0
4362 1 2 16.02230012636157 -260.9235911036361 0 0 0 0
4363 1 1 21.202435128485423 -258.67150918995304 0 0 0 0
4364 1 1 26.524451231539427 -258.03083108502557 0 0 0 0
4365 1 1 31.106435613988857 -257.8016900322042 0 0 0 0
4366 1 1 36.08759625460856 -257.626526663575 0 0 0 0
4367 1 1 41.14735281959603 -255.37711710454687 0 0 0 0
4368 1 1 46.68822896887007 -253.75429448794446 0 0 0 0
4369 1 1 52.4409058085592 -252.60596415535244 0 0 0 0
4370 1 1 58.05180348913152 -252.22439432114516 0 0 0 0
4371 1 1 63.17663146657377 -249.84210970553843 0 0 0 0
4372 1 1 68.61864753741769 -249.48484179013752 0 0 0 0
4373 1 1 74.11405239959478 -248.43579430610075 0 0 0 0
4374 1 1 79.79691515591712 -247.24531894615453 0 0 0 0
4375 1 1 84.46939679111487 -246.70898782655448 0 0 0 0
4376 1 1 89.6207204786809 -244.45633964991592 0 0 0 0
4377 1 1 94.52392749200392 -243.92636011664737 0 0 0 0
4378 1 1 100.33692331208644 -243.26413628084774 0 0 0 0
4379 1 1 106.35571563992507 -241.8122152372827 0 0 0 0
4380 1 1 111.74950891187639 -239.97196544261658 0 0 0 0
4381 1 1 117.0921056407466 -238.808833588817 0 0 0 0
4382 1 1 123.38661335900099 -238.12424717605967 0 0 0 0
4383 1 1 129.65805312735134 -236.5615020803637 0 0 0 0
4384 1 1 135.7669651139199 -235.42758922535842 0 0 0 0
4385 1 1 141.65481801071616 -234.48365476109427 0 0 0 0
4386 1 1 147.6402749631378 -233.2770515629489 0 0 0 0
4387 1 1 153.12741932574414 -232.66823047090554 0 0 0 0
4388 1 1 158.34415380366494 -230.60714251773197 0 0 0 0
4389 1 1 164.35454764730338 -229.93662840780738 0 0 0 0
4390 1 1 170.48211558177306 -229.17058563065243 0 0 0 0
4391 1 1 176.32682503883996 -227.71874450768905 0 0 0 0
4392 1 1 181.35176807523598 -226.63192446625388 0 0 0 0
4393 1 1 187.0435178019349 -225.69683009401226 0 0 0 0
4394 1 1 192.96525407495628 -224.60371820805312 0 0 0 0
4395 1 1 198.7006403177414 -224.21409385571226 0 0 0 0
4396 1 1 204.56243832328633 -222.25076483551854 0 0 0 0
4397 1 1 209.96748671140253 -221.05357157122404 0 0 0 0
4398 1 1 216.27101302797666 -219.58791983706945 0 0 0 0
4399 1 1 223.02708323287197 -218.61139057004212 0 0 0 0
4400 1 1 228.6510753766178 -217.5852357593811 0 0 0 0
4401 1 1 234.4811582395307 -215.9871016870425 0 0 0 0
4402 1 1 240.33842018404826 -215.53075948878714 0 0 0 0
4403 1 1 246.58481841415716 -213.8198445929412 0 0 0 0
4404 1 1 252.36204372524222 -212.82476281533812 0 0 0 0
4405 1 1 257.5864398939168 -211.62991216911684 0 0 0 0
4406 1 1 263.68585928514653 -210.70172042426495 0 0 0 0
4407 1 1 269.7372293562069 -210.0881044824745 0 0 0 0
4408 1 1 275.18137993015665 -209.2659729114346 0 0 0 0
4409 1 1 280.349819401905 -207.15478748902052 0 0 0 0
4410 1 1 286.36017413381956 -206.6271910957666 0 0 0 0
4411 1 1 293.4649667955262 -205.57802921204546 0 0 0 0
4412 1 1 299.2505650121059 -203.96574759901264 0 0 0 0
4413 1 1 305.04924686796437 -203.18461716329543 0 0 0 0
4414 1 1 311.21465852542707 -201.75768549611217 0 0 0 0
4415 1 2 317.4594355029301 -200.6706790083001 0 0 0 0
4416 1 2 323.1469286232428 -199.53383161027492 0 0 0 0
4514 1 2 0.8190284696807026 -258.8401954273736 0 0 0 0
4515 1 2 6.506521589993341 -257.7033480293485 0 0 0 0
4516 1 1 11.718005413760343 -257.59650887803514 0 0 0 0
4517 1 1 15.993309334416718 -255.42897096990504 0 0 0 0
4518 1 1 20.690375841624967 -253.32641122173894 0 0 0 0
4519 1 1 25.682753291684847 -252.80184347899214 0 0 0 0
4520 1 1 31.075385223485206 -252.6159386174855 0 0 0 0
4521 1 1 35.66663633043965 -252.1951391043032 0 0 0 0
4522 1 1 41.291062281695524 -250.17012200826903 0 0 0 0
4523 1 1 46.54634539783718 -248.47191922749397 0 0 0 0
4524 1 1 51.719690567649614 -247.47151188239184 0 0 0 0
4525 1 1 57.88006350618471 -246.53783084464823 0 0 0 0
4526 1 1 64.32766280237331 -244.34187414583855 0 0 0 0
4527 1 1 69.94923402537012 -243.84186999502057 0 0 0 0
4528 1 1 75.53212855164958 -242.88981711862246 0 0 0 0
4529 1 1 80.90065916594148 -241.18666952911684 0 0 0 0
4530 1 1 86.28689838857471 -240.05398117971797 0 0 0 0
4531 1 1 92.0364622298303 -238.6808660858672 0 0 0 0
4532 1 1 96.66489643670204 -238.4360076623408 0 0 0 0
4533 1 1 101.9005010250447 -237.98389044847377 0 0 0 0
4534 1 1 106.77607641007565 -235.58847877354705 0 0 0 0
4535 1 1 112.40291089813967 -234.78764808238964 0 0 0 0
4536 1 1 118.52982783563937 -233.37811495271964 0 0 0 0
4537 1 1 124.79958301801733 -232.61347027237687 0 0 0 0
4538 1 1 131.35815824389684 -230.93820951853613 0 0 0 0
4539 1 1 137.39434538053354 -229.87481031969756 0 0 0 0
4540 1 1 143.22427156217347 -229.509494864926 0 0 0 0
4541 1 1 149.16627672950622 -227.7349961774868 0 0 0 0
4542 1 1 154.15966123134984 -226.25523886456529 0 0 0 0
4543 1 1 159.89469602502297 -224.83772920432514 0 0 0 0
4544 1 1 165.86932072782895 -224.49851578835484 0 0 0 0
4545 1 1 172.13981537537845 -223.07985202445067 0 0 0 0
4546 1 1 178.20206385078208 -221.5163440501655 0 0 0 0
4547 1 1 183.15612820250823 -220.9531943354593 0 0 0 0
4548 1 1 188.64164731030675 -220.7299108427101 0 0 0 0
4549 1 1 194.78686227714311 -219.1991904420512 0 0 0 0
4550 1 1 200.18772767570644 -218.56453843164954 0 0 0 0
4551 1 1 205.29426040301365 -216.15598267844518 0 0 0 0
4552 1 1 211.07721246606505 -215.69163803166134 0 0 0 0
4553 1 1 218.1510597663845 -214.437941016225 0 0 0 0
4554 1 1 224.28624868424103 -212.80328799282265 0 0 0 0
4555 1 1 230.06205657408103 -212.25944957741612 0 0 0 0
4556 1 1 236.1608693066522 -210.81134656070208 0 0 0 0
4557 1 1 241.93149786720062 -210.2495326175158 0 0 0 0
4558 1 1 247.13179083707627 -207.80600097319427 0 0 0 0
4559 1 1 252.676600580649 -207.13963196671077 0 0 0 0
4560 1 1 259.1056965590484 -206.02962672841832 0 0 0 0
4561 1 1 265.6524365971468 -204.71612582878717 0 0 0 0
4562 1 1 271.795989464504 -204.1128863953888 0 0 0 0
4563 1 1 277.5743712918629 -202.2644226527991 0 0 0 0
4564 1 1 283.4209035656843 -201.78901542975402 0 0 0 0
4565 1 1 289.4642359414384 -201.26952511225548 0 0 0 0
4566 1 1 295.5734173459658 -199.61755127527707 0 0 0 0
4567 1 1 301.22662252129305 -198.31710557323512 0 0 0 0
4568 1 1 306.8041453877229 -197.9200853491143 0 0 0 0
4569 1 1 313.4605118225531 -196.2549401202324 0 0 0 0
4570 1 1 319.1783150992925 -195.21719451162502 0 0 0 0
4571 1 2 325.0061363274998 -194.03989373993682 0 0 0 0
4572 1 2 330.6936294478124 -192.90304634191162 0 0 0 0
4666 1 2 -8.696749870679369 -255.6199533336882 0 0 0 0
4667 1 2 -3.0092567503666885 -254.48310593566302 0 0 0 0
4668 1 1 1.439586405387401 -252.9636352437001 0 0 0 0
4669 1 1 5.869601505214688 -252.7440191388536 0 0 0 0
4670 1 1 10.757604283190435 -252.4006125085596 0 0 0 0
4671 1 1 16.28849544285805 -250.06452795082453 0 0 0 0
4672 1 1 21.415316025485538 -247.87986409082603 0 0 0 0
4673 1 1 27.0326435076492 -247.40866657226613 0 0 0 0
4674 1 1 32.371759061067756 -247.12194534978337 0 0 0 0
4675 1 1 37.059996544853156 -246.3232318245697 0 0 0 0
4676 1 1 41.38708718303733 -244.06380154727177 0 0 0 0
4677 1 1 46.7954594409664 -243.6450479322866 0 0 0 0
4678 1 1 52.991073591230354 -242.1551915300143 0 0 0 0
4679 1 1 58.813233145753514 -241.30956662837556 0 0 0 0
4680 1 1 63.718722656570066 -239.0068975588652 0 0 0 0
4681 1 1 69.50806819674729 -238.49248112574418 0 0 0 0
4682 1 1 75.84585548724405 -236.66955398972058 0 0 0 0
4683 1 1 81.91603249174487 -235.3401639397607 0 0 0 0
4684 1 1 87.70687411154414 -234.63346071768495 0 0 0 0
4685 1 1 93.75790042460619 -233.05978770445444 0 0 0 0
4686 1 1 99.08821544182996 -232.69916028266533 0 0 0 0
4687 1 1 104.14947304529083 -230.52567578573357 0 0 0 0
4688 1 1 109.02667264711883 -229.8926224517255 0 0 0 0
4689 1 1 114.23955285530235 -229.5212845656459 0 0 0 0
4690 1 1 120.61343444756497 -227.94262973267595 0 0 0 0
4691 1 1 126.51910839042263 -226.94676103981354 0 0 0 0
4692 1 1 132.58667840536523 -225.49024505022314 0 0 0 0
4693 1 1 138.97601978431987 -224.52578445016837 0 0 0 0
4694 1 1 144.71312267599458 -224.11507064569372 0 0 0 0
4695 1 1 149.73974669772883 -221.5370831367655 0 0 0 0
4696 1 1 155.3813780193522 -221.0021919215065 0 0 0 0
4697 1 1 161.5071466992225 -219.7578469449616 0 0 0 0
4698 1 1 167.46268562380314 -219.03230016396662 0 0 0 0
4699 1 1 173.21884619326727 -217.20292915633797 0 0 0 0
4700 1 1 178.78288743755783 -215.94290992328592 0 0 0 0
4701 1 1 185.44011791533353 -215.5202169477381 0 0 0 0
4702 1 1 190.9276759174785 -214.85946504488115 0 0 0 0
4703 1 1 196.45933994837472 -212.99084073583657 0 0 0 0
4704 1 1 201.39122990337282 -212.37697091866573 0 0 0 0
4705 1 1 207.73409841803496 -210.79803098639962 0 0 0 0
4706 1 1 213.44777543493151 -210.29760912739673 0 0 0 0
4707 1 1 220.01586272892226 -209.0186110439905 0 0 0 0
4708 1 1 226.0855897630422 -207.34763068493078 0 0 0 0
4709 1 1 231.71150458597754 -206.91979214028038 0 0 0 0
4710 1 1 237.6245239994317 -206.01423424031637 0 0 0 0
4711 1 1 243.02640346091604 -204.3678133899819 0 0 0 0
4712 1 1 248.39667643154593 -202.2903879003374 0 0 0 0
4713 1 1 254.23644033497578 -201.76243560300375 0 0 0 0
4714 1 1 260.91632138134486 -200.731935149141 0 0 0 0
4715 1 1 267.3799195379145 -199.08233909617786 0 0 0 0
4716 1 1 273.26630699548394 -198.40873764031087 0 0 0 0
4717 1 1 279.32770877117673 -197.31551749021403 0 0 0 0
4718 1 1 285.3181698454277 -196.44537812526565 0 0 0 0
4719 1 1 291.12886006766723 -195.77620467429855 0 0 0 0
4720 1 1 296.41308836341904 -193.64066932245706 0 0 0 0
4721 1 1 302.91270307717986 -192.8256314591939 0 0 0 0
4722 1 1 308.96149883825194 -192.36792598888027 0 0 0 0
4723 1 1 315.191380393 -190.3449831748486 0 0 0 0
4724 1 1 321.00733273165315 -189.15063192958712 0 0 0 0
4725 1 1 326.8210424980779 -188.03118642285315 0 0 0 0
4726 1 2 332.5528373480776 -187.40910945217578 0 0 0 0
4727 1 2 338.2403304683902 -186.2722620541505 0 0 0 0
4820 1 2 -12.525035090726732 -251.26286384197746 0 0 0 0
4821 1 1 -7.119124614699153 -250.25690884889875 0 0 0 0
4822 1 1 -2.575633190656409 -248.08979255767773 0 0 0 0
4823 1 1 2.84811300108073 -247.4402009834686 0 0 0 0
4824 1 1 7.5843218331183015 -247.200744915599 0 0 0 0
4825 1 1 12.203941188828919 -246.8503865619333 0 0 0 0
4826 1 1 16.936025581070343 -244.13334985940384 0 0 0 0
4827 1 1 22.625793388819705 -243.51352373018958 0 0 0 0
4828 1 1 28.655902032617554 -241.98519309838647 0 0 0 0
4829 1 1 34.09319886932309 -241.359805070577 0 0 0 0
4830 1 1 38.83975610921928 -238.99775962862688 0 0 0 0
4831 1 1 44.208142979726354 -238.58072276140726 0 0 0 0
4832 1 1 48.99862390709391 -238.13085634776266 0 0 0 0
4833 1 1 54.61749478786218 -236.53717138740024 0 0 0 0