LAMMPS data file, generated on Wed May  3 13:57:50 2023
# n_atoms
9407 atoms
2 atom types
27870 bonds
1 bond types
#scatola
-893.1999999999999318 893.1999999999999318 xlo xhi
-893.1999999999999318 893.1999999999999318 ylo yhi
-5.0 5.0 zlo zhi

Masses

1 31.06
2 31.06

Atoms # bond

2995 1 2 -46.400000 -291.330946 0.0 0 0 0
2996 1 2 -40.600000 -291.330946 0.0 0 0 0
2997 1 2 -34.800000 -291.330946 0.0 0 0 0
2998 1 2 -29.000000 -291.330946 0.0 0 0 0
2999 1 2 -23.200000 -291.330946 0.0 0 0 0
3000 1 2 -17.400000 -291.330946 0.0 0 0 0
3001 1 2 -11.600000 -291.330946 0.0 0 0 0
3002 1 2 -5.800000 -291.330946 0.0 0 0 0
3003 1 2 0.000000 -291.330946 0.0 0 0 0
3004 1 2 5.800000 -291.330946 0.0 0 0 0
3005 1 2 11.600000 -291.330946 0.0 0 0 0
3006 1 2 17.400000 -291.330946 0.0 0 0 0
3007 1 2 23.200000 -291.330946 0.0 0 0 0
3008 1 2 29.000000 -291.330946 0.0 0 0 0
3009 1 2 34.800000 -291.330946 0.0 0 0 0
3010 1 2 40.600000 -291.330946 0.0 0 0 0
3011 1 2 46.400000 -291.330946 0.0 0 0 0
3144 1 2 -72.500000 -286.307998 0.0 0 0 0
3145 1 2 -66.700000 -286.307998 0.0 0 0 0
3146 1 2 -60.900000 -286.307998 0.0 0 0 0
3147 1 2 -55.100000 -286.307998 0.0 0 0 0
3148 1 2 -49.300000 -286.307998 0.0 0 0 0
3149 1 1 -43.500000 -286.307998 0.0 0 0 0
3150 1 1 -37.700000 -286.307998 0.0 0 0 0
3151 1 1 -31.900000 -286.307998 0.0 0 0 0
3152 1 1 -26.100000 -286.307998 0.0 0 0 0
3153 1 1 -20.300000 -286.307998 0.0 0 0 0
3154 1 1 -14.500000 -286.307998 0.0 0 0 0
3155 1 1 -8.700000 -286.307998 0.0 0 0 0
3156 1 1 -2.900000 -286.307998 0.0 0 0 0
3157 1 1 2.900000 -286.307998 0.0 0 0 0
3158 1 1 8.700000 -286.307998 0.0 0 0 0
3159 1 1 14.500000 -286.307998 0.0 0 0 0
3160 1 1 20.300000 -286.307998 0.0 0 0 0
3161 1 1 26.100000 -286.307998 0.0 0 0 0
3162 1 1 31.900000 -286.307998 0.0 0 0 0
3163 1 1 37.700000 -286.307998 0.0 0 0 0
3164 1 1 43.500000 -286.307998 0.0 0 0 0
3165 1 2 49.300000 -286.307998 0.0 0 0 0
3166 1 2 55.100000 -286.307998 0.0 0 0 0
3167 1 2 60.900000 -286.307998 0.0 0 0 0
3168 1 2 66.700000 -286.307998 0.0 0 0 0
3169 1 2 72.500000 -286.307998 0.0 0 0 0
3296 1 2 -87.000000 -281.285051 0.0 0 0 0
3297 1 2 -81.200000 -281.285051 0.0 0 0 0
3298 1 2 -75.400000 -281.285051 0.0 0 0 0
3299 1 1 -69.600000 -281.285051 0.0 0 0 0
3300 1 1 -63.800000 -281.285051 0.0 0 0 0
3301 1 1 -58.000000 -281.285051 0.0 0 0 0
3302 1 1 -52.200000 -281.285051 0.0 0 0 0
3303 1 1 -46.400000 -281.285051 0.0 0 0 0
3304 1 1 -40.600000 -281.285051 0.0 0 0 0
3305 1 1 -34.800000 -281.285051 0.0 0 0 0
3306 1 1 -29.000000 -281.285051 0.0 0 0 0
3307 1 1 -23.200000 -281.285051 0.0 0 0 0
3308 1 1 -17.400000 -281.285051 0.0 0 0 0
3309 1 1 -11.600000 -281.285051 0.0 0 0 0
3310 1 1 -5.800000 -281.285051 0.0 0 0 0
3311 1 1 0.000000 -281.285051 0.0 0 0 0
3312 1 1 5.800000 -281.285051 0.0 0 0 0
3313 1 1 11.600000 -281.285051 0.0 0 0 0
3314 1 1 17.400000 -281.285051 0.0 0 0 0
3315 1 1 23.200000 -281.285051 0.0 0 0 0
3316 1 1 29.000000 -281.285051 0.0 0 0 0
3317 1 1 34.800000 -281.285051 0.0 0 0 0
3318 1 1 40.600000 -281.285051 0.0 0 0 0
3319 1 1 46.400000 -281.285051 0.0 0 0 0
3320 1 1 52.200000 -281.285051 0.0 0 0 0
3321 1 1 58.000000 -281.285051 0.0 0 0 0
3322 1 1 63.800000 -281.285051 0.0 0 0 0
3323 1 1 69.600000 -281.285051 0.0 0 0 0
3324 1 2 75.400000 -281.285051 0.0 0 0 0
3325 1 2 81.200000 -281.285051 0.0 0 0 0
3326 1 2 87.000000 -281.285051 0.0 0 0 0
3447 1 2 -101.500000 -276.262104 0.0 0 0 0
3448 1 2 -95.700000 -276.262104 0.0 0 0 0
3449 1 2 -89.900000 -276.262104 0.0 0 0 0
3450 1 1 -84.100000 -276.262104 0.0 0 0 0
3451 1 1 -78.300000 -276.262104 0.0 0 0 0
3452 1 1 -72.500000 -276.262104 0.0 0 0 0
3453 1 1 -66.700000 -276.262104 0.0 0 0 0
3454 1 1 -60.900000 -276.262104 0.0 0 0 0
3455 1 1 -55.100000 -276.262104 0.0 0 0 0
3456 1 1 -49.300000 -276.262104 0.0 0 0 0
3457 1 1 -43.500000 -276.262104 0.0 0 0 0
3458 1 1 -37.700000 -276.262104 0.0 0 0 0
3459 1 1 -31.900000 -276.262104 0.0 0 0 0
3460 1 1 -26.100000 -276.262104 0.0 0 0 0
3461 1 1 -20.300000 -276.262104 0.0 0 0 0
3462 1 1 -14.500000 -276.262104 0.0 0 0 0
3463 1 1 -8.700000 -276.262104 0.0 0 0 0
3464 1 1 -2.900000 -276.262104 0.0 0 0 0
3465 1 1 2.900000 -276.262104 0.0 0 0 0
3466 1 1 8.700000 -276.262104 0.0 0 0 0
3467 1 1 14.500000 -276.262104 0.0 0 0 0
3468 1 1 20.300000 -276.262104 0.0 0 0 0
3469 1 1 26.100000 -276.262104 0.0 0 0 0
3470 1 1 31.900000 -276.262104 0.0 0 0 0
3471 1 1 37.700000 -276.262104 0.0 0 0 0
3472 1 1 43.500000 -276.262104 0.0 0 0 0
3473 1 1 49.300000 -276.262104 0.0 0 0 0
3474 1 1 55.100000 -276.262104 0.0 0 0 0
3475 1 1 60.900000 -276.262104 0.0 0 0 0
3476 1 1 66.700000 -276.262104 0.0 0 0 0
3477 1 1 72.500000 -276.262104 0.0 0 0 0
3478 1 1 78.300000 -276.262104 0.0 0 0 0
3479 1 1 84.100000 -276.262104 0.0 0 0 0
3480 1 2 89.900000 -276.262104 0.0 0 0 0
3481 1 2 95.700000 -276.262104 0.0 0 0 0
3482 1 2 101.500000 -276.262104 0.0 0 0 0
3599 1 2 -116.000000 -271.239156 0.0 0 0 0
3600 1 2 -110.200000 -271.239156 0.0 0 0 0
3601 1 2 -104.400000 -271.239156 0.0 0 0 0
3602 1 1 -98.600000 -271.239156 0.0 0 0 0
3603 1 1 -92.800000 -271.239156 0.0 0 0 0
3604 1 1 -87.000000 -271.239156 0.0 0 0 0
3605 1 1 -81.200000 -271.239156 0.0 0 0 0
3606 1 1 -75.400000 -271.239156 0.0 0 0 0
3607 1 1 -69.600000 -271.239156 0.0 0 0 0
3608 1 1 -63.800000 -271.239156 0.0 0 0 0
3609 1 1 -58.000000 -271.239156 0.0 0 0 0
3610 1 1 -52.200000 -271.239156 0.0 0 0 0
3611 1 1 -46.400000 -271.239156 0.0 0 0 0
3612 1 1 -40.600000 -271.239156 0.0 0 0 0
3613 1 1 -34.800000 -271.239156 0.0 0 0 0
3614 1 1 -29.000000 -271.239156 0.0 0 0 0
3615 1 1 -23.200000 -271.239156 0.0 0 0 0
3616 1 1 -17.400000 -271.239156 0.0 0 0 0
3617 1 1 -11.600000 -271.239156 0.0 0 0 0
3618 1 1 -5.800000 -271.239156 0.0 0 0 0
3619 1 1 0.000000 -271.239156 0.0 0 0 0
3620 1 1 5.800000 -271.239156 0.0 0 0 0
3621 1 1 11.600000 -271.239156 0.0 0 0 0
3622 1 1 17.400000 -271.239156 0.0 0 0 0
3623 1 1 23.200000 -271.239156 0.0 0 0 0
3624 1 1 29.000000 -271.239156 0.0 0 0 0
3625 1 1 34.800000 -271.239156 0.0 0 0 0
3626 1 1 40.600000 -271.239156 0.0 0 0 0
3627 1 1 46.400000 -271.239156 0.0 0 0 0
3628 1 1 52.200000 -271.239156 0.0 0 0 0
3629 1 1 58.000000 -271.239156 0.0 0 0 0
3630 1 1 63.800000 -271.239156 0.0 0 0 0
3631 1 1 69.600000 -271.239156 0.0 0 0 0
3632 1 1 75.400000 -271.239156 0.0 0 0 0
3633 1 1 81.200000 -271.239156 0.0 0 0 0
3634 1 1 87.000000 -271.239156 0.0 0 0 0
3635 1 1 92.800000 -271.239156 0.0 0 0 0
3636 1 1 98.600000 -271.239156 0.0 0 0 0
3637 1 2 104.400000 -271.239156 0.0 0 0 0
3638 1 2 110.200000 -271.239156 0.0 0 0 0
3639 1 2 116.000000 -271.239156 0.0 0 0 0
3751 1 2 -124.700000 -266.216209 0.0 0 0 0
3752 1 2 -118.900000 -266.216209 0.0 0 0 0
3753 1 1 -113.100000 -266.216209 0.0 0 0 0
3754 1 1 -107.300000 -266.216209 0.0 0 0 0
3755 1 1 -101.500000 -266.216209 0.0 0 0 0
3756 1 1 -95.700000 -266.216209 0.0 0 0 0
3757 1 1 -89.900000 -266.216209 0.0 0 0 0
3758 1 1 -84.100000 -266.216209 0.0 0 0 0
3759 1 1 -78.300000 -266.216209 0.0 0 0 0
3760 1 1 -72.500000 -266.216209 0.0 0 0 0
3761 1 1 -66.700000 -266.216209 0.0 0 0 0
3762 1 1 -60.900000 -266.216209 0.0 0 0 0
3763 1 1 -55.100000 -266.216209 0.0 0 0 0
3764 1 1 -49.300000 -266.216209 0.0 0 0 0
3765 1 1 -43.500000 -266.216209 0.0 0 0 0
3766 1 1 -37.700000 -266.216209 0.0 0 0 0
3767 1 1 -31.900000 -266.216209 0.0 0 0 0
3768 1 1 -26.100000 -266.216209 0.0 0 0 0
3769 1 1 -20.300000 -266.216209 0.0 0 0 0
3770 1 1 -14.500000 -266.216209 0.0 0 0 0
3771 1 1 -8.700000 -266.216209 0.0 0 0 0
3772 1 1 -2.900000 -266.216209 0.0 0 0 0
3773 1 1 2.900000 -266.216209 0.0 0 0 0
3774 1 1 8.700000 -266.216209 0.0 0 0 0
3775 1 1 14.500000 -266.216209 0.0 0 0 0
3776 1 1 20.300000 -266.216209 0.0 0 0 0
3777 1 1 26.100000 -266.216209 0.0 0 0 0
3778 1 1 31.900000 -266.216209 0.0 0 0 0
3779 1 1 37.700000 -266.216209 0.0 0 0 0
3780 1 1 43.500000 -266.216209 0.0 0 0 0
3781 1 1 49.300000 -266.216209 0.0 0 0 0
3782 1 1 55.100000 -266.216209 0.0 0 0 0
3783 1 1 60.900000 -266.216209 0.0 0 0 0
3784 1 1 66.700000 -266.216209 0.0 0 0 0
3785 1 1 72.500000 -266.216209 0.0 0 0 0
3786 1 1 78.300000 -266.216209 0.0 0 0 0
3787 1 1 84.100000 -266.216209 0.0 0 0 0
3788 1 1 89.900000 -266.216209 0.0 0 0 0
3789 1 1 95.700000 -266.216209 0.0 0 0 0
3790 1 1 101.500000 -266.216209 0.0 0 0 0
3791 1 1 107.300000 -266.216209 0.0 0 0 0
3792 1 1 113.100000 -266.216209 0.0 0 0 0
3793 1 2 118.900000 -266.216209 0.0 0 0 0
3794 1 2 124.700000 -266.216209 0.0 0 0 0
3904 1 2 -133.400000 -261.193262 0.0 0 0 0
3905 1 2 -127.600000 -261.193262 0.0 0 0 0
3906 1 1 -121.800000 -261.193262 0.0 0 0 0
3907 1 1 -116.000000 -261.193262 0.0 0 0 0
3908 1 1 -110.200000 -261.193262 0.0 0 0 0
3909 1 1 -104.400000 -261.193262 0.0 0 0 0
3910 1 1 -98.600000 -261.193262 0.0 0 0 0
3911 1 1 -92.800000 -261.193262 0.0 0 0 0
3912 1 1 -87.000000 -261.193262 0.0 0 0 0
3913 1 1 -81.200000 -261.193262 0.0 0 0 0
3914 1 1 -75.400000 -261.193262 0.0 0 0 0
3915 1 1 -69.600000 -261.193262 0.0 0 0 0
3916 1 1 -63.800000 -261.193262 0.0 0 0 0
3917 1 1 -58.000000 -261.193262 0.0 0 0 0
3918 1 1 -52.200000 -261.193262 0.0 0 0 0
3919 1 1 -46.400000 -261.193262 0.0 0 0 0
3920 1 1 -40.600000 -261.193262 0.0 0 0 0
3921 1 1 -34.800000 -261.193262 0.0 0 0 0
3922 1 1 -29.000000 -261.193262 0.0 0 0 0
3923 1 1 -23.200000 -261.193262 0.0 0 0 0
3924 1 1 -17.400000 -261.193262 0.0 0 0 0
3925 1 1 -11.600000 -261.193262 0.0 0 0 0
3926 1 1 -5.800000 -261.193262 0.0 0 0 0
3927 1 1 0.000000 -261.193262 0.0 0 0 0
3928 1 1 5.800000 -261.193262 0.0 0 0 0
3929 1 1 11.600000 -261.193262 0.0 0 0 0
3930 1 1 17.400000 -261.193262 0.0 0 0 0
3931 1 1 23.200000 -261.193262 0.0 0 0 0
3932 1 1 29.000000 -261.193262 0.0 0 0 0
3933 1 1 34.800000 -261.193262 0.0 0 0 0
3934 1 1 40.600000 -261.193262 0.0 0 0 0
3935 1 1 46.400000 -261.193262 0.0 0 0 0
3936 1 1 52.200000 -261.193262 0.0 0 0 0
3937 1 1 58.000000 -261.193262 0.0 0 0 0
3938 1 1 63.800000 -261.193262 0.0 0 0 0
3939 1 1 69.600000 -261.193262 0.0 0 0 0
3940 1 1 75.400000 -261.193262 0.0 0 0 0
3941 1 1 81.200000 -261.193262 0.0 0 0 0
3942 1 1 87.000000 -261.193262 0.0 0 0 0
3943 1 1 92.800000 -261.193262 0.0 0 0 0
3944 1 1 98.600000 -261.193262 0.0 0 0 0
3945 1 1 104.400000 -261.193262 0.0 0 0 0
3946 1 1 110.200000 -261.193262 0.0 0 0 0
3947 1 1 116.000000 -261.193262 0.0 0 0 0
3948 1 1 121.800000 -261.193262 0.0 0 0 0
3949 1 2 127.600000 -261.193262 0.0 0 0 0
3950 1 2 133.400000 -261.193262 0.0 0 0 0
4055 1 2 -147.900000 -256.170314 0.0 0 0 0
4056 1 2 -142.100000 -256.170314 0.0 0 0 0
4057 1 2 -136.300000 -256.170314 0.0 0 0 0
4058 1 1 -130.500000 -256.170314 0.0 0 0 0
4059 1 1 -124.700000 -256.170314 0.0 0 0 0
4060 1 1 -118.900000 -256.170314 0.0 0 0 0
4061 1 1 -113.100000 -256.170314 0.0 0 0 0
4062 1 1 -107.300000 -256.170314 0.0 0 0 0
4063 1 1 -101.500000 -256.170314 0.0 0 0 0
4064 1 1 -95.700000 -256.170314 0.0 0 0 0
4065 1 1 -89.900000 -256.170314 0.0 0 0 0
4066 1 1 -84.100000 -256.170314 0.0 0 0 0
4067 1 1 -78.300000 -256.170314 0.0 0 0 0
4068 1 1 -72.500000 -256.170314 0.0 0 0 0
4069 1 1 -66.700000 -256.170314 0.0 0 0 0
4070 1 1 -60.900000 -256.170314 0.0 0 0 0
4071 1 1 -55.100000 -256.170314 0.0 0 0 0
4072 1 1 -49.300000 -256.170314 0.0 0 0 0
4073 1 1 -43.500000 -256.170314 0.0 0 0 0
4074 1 1 -37.700000 -256.170314 0.0 0 0 0
4075 1 1 -31.900000 -256.170314 0.0 0 0 0
4076 1 1 -26.100000 -256.170314 0.0 0 0 0
4077 1 1 -20.300000 -256.170314 0.0 0 0 0
4078 1 1 -14.500000 -256.170314 0.0 0 0 0
4079 1 1 -8.700000 -256.170314 0.0 0 0 0
4080 1 1 -2.900000 -256.170314 0.0 0 0 0
4081 1 1 2.900000 -256.170314 0.0 0 0 0
4082 1 1 8.700000 -256.170314 0.0 0 0 0
4083 1 1 14.500000 -256.170314 0.0 0 0 0
4084 1 1 20.300000 -256.170314 0.0 0 0 0
4085 1 1 26.100000 -256.170314 0.0 0 0 0
4086 1 1 31.900000 -256.170314 0.0 0 0 0
4087 1 1 37.700000 -256.170314 0.0 0 0 0
4088 1 1 43.500000 -256.170314 0.0 0 0 0
4089 1 1 49.300000 -256.170314 0.0 0 0 0
4090 1 1 55.100000 -256.170314 0.0 0 0 0
4091 1 1 60.900000 -256.170314 0.0 0 0 0
4092 1 1 66.700000 -256.170314 0.0 0 0 0
4093 1 1 72.500000 -256.170314 0.0 0 0 0
4094 1 1 78.300000 -256.170314 0.0 0 0 0
4095 1 1 84.100000 -256.170314 0.0 0 0 0
4096 1 1 89.900000 -256.170314 0.0 0 0 0
4097 1 1 95.700000 -256.170314 0.0 0 0 0
4098 1 1 101.500000 -256.170314 0.0 0 0 0
4099 1 1 107.300000 -256.170314 0.0 0 0 0
4100 1 1 113.100000 -256.170314 0.0 0 0 0
4101 1 1 118.900000 -256.170314 0.0 0 0 0
4102 1 1 124.700000 -256.170314 0.0 0 0 0
4103 1 1 130.500000 -256.170314 0.0 0 0 0
4104 1 2 136.300000 -256.170314 0.0 0 0 0
4105 1 2 142.100000 -256.170314 0.0 0 0 0
4106 1 2 147.900000 -256.170314 0.0 0 0 0
4209 1 2 -150.800000 -251.147367 0.0 0 0 0
4210 1 1 -145.000000 -251.147367 0.0 0 0 0
4211 1 1 -139.200000 -251.147367 0.0 0 0 0
4212 1 1 -133.400000 -251.147367 0.0 0 0 0
4213 1 1 -127.600000 -251.147367 0.0 0 0 0
4214 1 1 -121.800000 -251.147367 0.0 0 0 0
4215 1 1 -116.000000 -251.147367 0.0 0 0 0
4216 1 1 -110.200000 -251.147367 0.0 0 0 0
4217 1 1 -104.400000 -251.147367 0.0 0 0 0
4218 1 1 -98.600000 -251.147367 0.0 0 0 0
4219 1 1 -92.800000 -251.147367 0.0 0 0 0
4220 1 1 -87.000000 -251.147367 0.0 0 0 0
4221 1 1 -81.200000 -251.147367 0.0 0 0 0
4222 1 1 -75.400000 -251.147367 0.0 0 0 0
4223 1 1 -69.600000 -251.147367 0.0 0 0 0
4224 1 1 -63.800000 -251.147367 0.0 0 0 0
4225 1 1 -58.000000 -251.147367 0.0 0 0 0
4226 1 1 -52.200000 -251.147367 0.0 0 0 0
4227 1 1 -46.400000 -251.147367 0.0 0 0 0
4228 1 1 -40.600000 -251.147367 0.0 0 0 0
4229 1 1 -34.800000 -251.147367 0.0 0 0 0
4230 1 1 -29.000000 -251.147367 0.0 0 0 0
4231 1 1 -23.200000 -251.147367 0.0 0 0 0
4232 1 1 -17.400000 -251.147367 0.0 0 0 0
4233 1 1 -11.600000 -251.147367 0.0 0 0 0
4234 1 1 -5.800000 -251.147367 0.0 0 0 0
4235 1 1 0.000000 -251.147367 0.0 0 0 0
4236 1 1 5.800000 -251.147367 0.0 0 0 0
4237 1 1 11.600000 -251.147367 0.0 0 0 0
4238 1 1 17.400000 -251.147367 0.0 0 0 0
4239 1 1 23.200000 -251.147367 0.0 0 0 0
4240 1 1 29.000000 -251.147367 0.0 0 0 0
4241 1 1 34.800000 -251.147367 0.0 0 0 0
4242 1 1 40.600000 -251.147367 0.0 0 0 0
4243 1 1 46.400000 -251.147367 0.0 0 0 0
4244 1 1 52.200000 -251.147367 0.0 0 0 0
4245 1 1 58.000000 -251.147367 0.0 0 0 0
4246 1 1 63.800000 -251.147367 0.0 0 0 0
4247 1 1 69.600000 -251.147367 0.0 0 0 0
4248 1 1 75.400000 -251.147367 0.0 0 0 0
4249 1 1 81.200000 -251.147367 0.0 0 0 0
4250 1 1 87.000000 -251.147367 0.0 0 0 0
4251 1 1 92.800000 -251.147367 0.0 0 0 0
4252 1 1 98.600000 -251.147367 0.0 0 0 0
4253 1 1 104.400000 -251.147367 0.0 0 0 0
4254 1 1 110.200000 -251.147367 0.0 0 0 0
4255 1 1 116.000000 -251.147367 0.0 0 0 0
4256 1 1 121.800000 -251.147367 0.0 0 0 0
4257 1 1 127.600000 -251.147367 0.0 0 0 0
4258 1 1 133.400000 -251.147367 0.0 0 0 0
4259 1 1 139.200000 -251.147367 0.0 0 0 0
4260 1 1 145.000000 -251.147367 0.0 0 0 0
4261 1 2 150.800000 -251.147367 0.0 0 0 0
4361 1 2 -159.500000 -246.124420 0.0 0 0 0
4362 1 2 -153.700000 -246.124420 0.0 0 0 0
4363 1 1 -147.900000 -246.124420 0.0 0 0 0
4364 1 1 -142.100000 -246.124420 0.0 0 0 0
4365 1 1 -136.300000 -246.124420 0.0 0 0 0
4366 1 1 -130.500000 -246.124420 0.0 0 0 0
4367 1 1 -124.700000 -246.124420 0.0 0 0 0
4368 1 1 -118.900000 -246.124420 0.0 0 0 0
4369 1 1 -113.100000 -246.124420 0.0 0 0 0
4370 1 1 -107.300000 -246.124420 0.0 0 0 0
4371 1 1 -101.500000 -246.124420 0.0 0 0 0
4372 1 1 -95.700000 -246.124420 0.0 0 0 0
4373 1 1 -89.900000 -246.124420 0.0 0 0 0
4374 1 1 -84.100000 -246.124420 0.0 0 0 0
4375 1 1 -78.300000 -246.124420 0.0 0 0 0
4376 1 1 -72.500000 -246.124420 0.0 0 0 0
4377 1 1 -66.700000 -246.124420 0.0 0 0 0
4378 1 1 -60.900000 -246.124420 0.0 0 0 0
4379 1 1 -55.100000 -246.124420 0.0 0 0 0
4380 1 1 -49.300000 -246.124420 0.0 0 0 0
4381 1 1 -43.500000 -246.124420 0.0 0 0 0
4382 1 1 -37.700000 -246.124420 0.0 0 0 0
4383 1 1 -31.900000 -246.124420 0.0 0 0 0
4384 1 1 -26.100000 -246.124420 0.0 0 0 0
4385 1 1 -20.300000 -246.124420 0.0 0 0 0
4386 1 1 -14.500000 -246.124420 0.0 0 0 0
4387 1 1 -8.700000 -246.124420 0.0 0 0 0
4388 1 1 -2.900000 -246.124420 0.0 0 0 0
4389 1 1 2.900000 -246.124420 0.0 0 0 0
4390 1 1 8.700000 -246.124420 0.0 0 0 0
4391 1 1 14.500000 -246.124420 0.0 0 0 0
4392 1 1 20.300000 -246.124420 0.0 0 0 0
4393 1 1 26.100000 -246.124420 0.0 0 0 0
4394 1 1 31.900000 -246.124420 0.0 0 0 0
4395 1 1 37.700000 -246.124420 0.0 0 0 0
4396 1 1 43.500000 -246.124420 0.0 0 0 0
4397 1 1 49.300000 -246.124420 0.0 0 0 0
4398 1 1 55.100000 -246.124420 0.0 0 0 0
4399 1 1 60.900000 -246.124420 0.0 0 0 0
4400 1 1 66.700000 -246.124420 0.0 0 0 0
4401 1 1 72.500000 -246.124420 0.0 0 0 0
4402 1 1 78.300000 -246.124420 0.0 0 0 0
4403 1 1 84.100000 -246.124420 0.0 0 0 0
4404 1 1 89.900000 -246.124420 0.0 0 0 0
4405 1 1 95.700000 -246.124420 0.0 0 0 0
4406 1 1 101.500000 -246.124420 0.0 0 0 0
4407 1 1 107.300000 -246.124420 0.0 0 0 0
4408 1 1 113.100000 -246.124420 0.0 0 0 0
4409 1 1 118.900000 -246.124420 0.0 0 0 0
4410 1 1 124.700000 -246.124420 0.0 0 0 0
4411 1 1 130.500000 -246.124420 0.0 0 0 0
4412 1 1 136.300000 -246.124420 0.0 0 0 0
4413 1 1 142.100000 -246.124420 0.0 0 0 0
4414 1 1 147.900000 -246.124420 0.0 0 0 0
4415 1 2 153.700000 -246.124420 0.0 0 0 0
4416 1 2 159.500000 -246.124420 0.0 0 0 0
4514 1 2 -168.200000 -241.101472 0.0 0 0 0
4515 1 2 -162.400000 -241.101472 0.0 0 0 0
4516 1 1 -156.600000 -241.101472 0.0 0 0 0
4517 1 1 -150.800000 -241.101472 0.0 0 0 0
4518 1 1 -145.000000 -241.101472 0.0 0 0 0
4519 1 1 -139.200000 -241.101472 0.0 0 0 0
4520 1 1 -133.400000 -241.101472 0.0 0 0 0
4521 1 1 -127.600000 -241.101472 0.0 0 0 0
4522 1 1 -121.800000 -241.101472 0.0 0 0 0
4523 1 1 -116.000000 -241.101472 0.0 0 0 0
4524 1 1 -110.200000 -241.101472 0.0 0 0 0
4525 1 1 -104.400000 -241.101472 0.0 0 0 0
4526 1 1 -98.600000 -241.101472 0.0 0 0 0
4527 1 1 -92.800000 -241.101472 0.0 0 0 0
4528 1 1 -87.000000 -241.101472 0.0 0 0 0
4529 1 1 -81.200000 -241.101472 0.0 0 0 0
4530 1 1 -75.400000 -241.101472 0.0 0 0 0
4531 1 1 -69.600000 -241.101472 0.0 0 0 0
4532 1 1 -63.800000 -241.101472 0.0 0 0 0
4533 1 1 -58.000000 -241.101472 0.0 0 0 0
4534 1 1 -52.200000 -241.101472 0.0 0 0 0
4535 1 1 -46.400000 -241.101472 0.0 0 0 0
4536 1 1 -40.600000 -241.101472 0.0 0 0 0
4537 1 1 -34.800000 -241.101472 0.0 0 0 0
4538 1 1 -29.000000 -241.101472 0.0 0 0 0
4539 1 1 -23.200000 -241.101472 0.0 0 0 0
4540 1 1 -17.400000 -241.101472 0.0 0 0 0
4541 1 1 -11.600000 -241.101472 0.0 0 0 0
4542 1 1 -5.800000 -241.101472 0.0 0 0 0
4543 1 1 0.000000 -241.101472 0.0 0 0 0
4544 1 1 5.800000 -241.101472 0.0 0 0 0
4545 1 1 11.600000 -241.101472 0.0 0 0 0
4546 1 1 17.400000 -241.101472 0.0 0 0 0
4547 1 1 23.200000 -241.101472 0.0 0 0 0
4548 1 1 29.000000 -241.101472 0.0 0 0 0
4549 1 1 34.800000 -241.101472 0.0 0 0 0
4550 1 1 40.600000 -241.101472 0.0 0 0 0
4551 1 1 46.400000 -241.101472 0.0 0 0 0
4552 1 1 52.200000 -241.101472 0.0 0 0 0
4553 1 1 58.000000 -241.101472 0.0 0 0 0
4554 1 1 63.800000 -241.101472 0.0 0 0 0
4555 1 1 69.600000 -241.101472 0.0 0 0 0
4556 1 1 75.400000 -241.101472 0.0 0 0 0
4557 1 1 81.200000 -241.101472 0.0 0 0 0
4558 1 1 87.000000 -241.101472 0.0 0 0 0
4559 1 1 92.800000 -241.101472 0.0 0 0 0
4560 1 1 98.600000 -241.101472 0.0 0 0 0
4561 1 1 104.400000 -241.101472 0.0 0 0 0
4562 1 1 110.200000 -241.101472 0.0 0 0 0
4563 1 1 116.000000 -241.101472 0.0 0 0 0
4564 1 1 121.800000 -241.101472 0.0 0 0 0
4565 1 1 127.600000 -241.101472 0.0 0 0 0
4566 1 1 133.400000 -241.101472 0.0 0 0 0
4567 1 1 139.200000 -241.101472 0.0 0 0 0
4568 1 1 145.000000 -241.101472 0.0 0 0 0
4569 1 1 150.800000 -241.101472 0.0 0 0 0
4570 1 1 156.600000 -241.101472 0.0 0 0 0
4571 1 2 162.400000 -241.101472 0.0 0 0 0
4572 1 2 168.200000 -241.101472 0.0 0 0 0
4666 1 2 -176.900000 -236.078525 0.0 0 0 0
4667 1 2 -171.100000 -236.078525 0.0 0 0 0
4668 1 1 -165.300000 -236.078525 0.0 0 0 0
4669 1 1 -159.500000 -236.078525 0.0 0 0 0
4670 1 1 -153.700000 -236.078525 0.0 0 0 0
4671 1 1 -147.900000 -236.078525 0.0 0 0 0
4672 1 1 -142.100000 -236.078525 0.0 0 0 0
4673 1 1 -136.300000 -236.078525 0.0 0 0 0
4674 1 1 -130.500000 -236.078525 0.0 0 0 0
4675 1 1 -124.700000 -236.078525 0.0 0 0 0
4676 1 1 -118.900000 -236.078525 0.0 0 0 0
4677 1 1 -113.100000 -236.078525 0.0 0 0 0
4678 1 1 -107.300000 -236.078525 0.0 0 0 0
4679 1 1 -101.500000 -236.078525 0.0 0 0 0
4680 1 1 -95.700000 -236.078525 0.0 0 0 0
4681 1 1 -89.900000 -236.078525 0.0 0 0 0
4682 1 1 -84.100000 -236.078525 0.0 0 0 0
4683 1 1 -78.300000 -236.078525 0.0 0 0 0
4684 1 1 -72.500000 -236.078525 0.0 0 0 0
4685 1 1 -66.700000 -236.078525 0.0 0 0 0
4686 1 1 -60.900000 -236.078525 0.0 0 0 0
4687 1 1 -55.100000 -236.078525 0.0 0 0 0
4688 1 1 -49.300000 -236.078525 0.0 0 0 0
4689 1 1 -43.500000 -236.078525 0.0 0 0 0
4690 1 1 -37.700000 -236.078525 0.0 0 0 0
4691 1 1 -31.900000 -236.078525 0.0 0 0 0
4692 1 1 -26.100000 -236.078525 0.0 0 0 0
4693 1 1 -20.300000 -236.078525 0.0 0 0 0
4694 1 1 -14.500000 -236.078525 0.0 0 0 0
4695 1 1 -8.700000 -236.078525 0.0 0 0 0
4696 1 1 -2.900000 -236.078525 0.0 0 0 0
4697 1 1 2.900000 -236.078525 0.0 0 0 0
4698 1 1 8.700000 -236.078525 0.0 0 0 0
4699 1 1 14.500000 -236.078525 0.0 0 0 0
4700 1 1 20.300000 -236.078525 0.0 0 0 0
4701 1 1 26.100000 -236.078525 0.0 0 0 0
4702 1 1 31.900000 -236.078525 0.0 0 0 0
4703 1 1 37.700000 -236.078525 0.0 0 0 0
4704 1 1 43.500000 -236.078525 0.0 0 0 0
4705 1 1 49.300000 -236.078525 0.0 0 0 0
4706 1 1 55.100000 -236.078525 0.0 0 0 0
4707 1 1 60.900000 -236.078525 0.0 0 0 0
4708 1 1 66.700000 -236.078525 0.0 0 0 0
4709 1 1 72.500000 -236.078525 0.0 0 0 0
4710 1 1 78.300000 -236.078525 0.0 0 0 0
4711 1 1 84.100000 -236.078525 0.0 0 0 0
4712 1 1 89.900000 -236.078525 0.0 0 0 0
4713 1 1 95.700000 -236.078525 0.0 0 0 0
4714 1 1 101.500000 -236.078525 0.0 0 0 0
4715 1 1 107.300000 -236.078525 0.0 0 0 0
4716 1 1 113.100000 -236.078525 0.0 0 0 0
4717 1 1 118.900000 -236.078525 0.0 0 0 0
4718 1 1 124.700000 -236.078525 0.0 0 0 0
4719 1 1 130.500000 -236.078525 0.0 0 0 0
4720 1 1 136.300000 -236.078525 0.0 0 0 0
4721 1 1 142.100000 -236.078525 0.0 0 0 0
4722 1 1 147.900000 -236.078525 0.0 0 0 0
4723 1 1 153.700000 -236.078525 0.0 0 0 0
4724 1 1 159.500000 -236.078525 0.0 0 0 0
4725 1 1 165.300000 -236.078525 0.0 0 0 0
4726 1 2 171.100000 -236.078525 0.0 0 0 0
4727 1 2 176.900000 -236.078525 0.0 0 0 0
4820 1 2 -179.800000 -231.055578 0.0 0 0 0
4821 1 1 -174.000000 -231.055578 0.0 0 0 0
4822 1 1 -168.200000 -231.055578 0.0 0 0 0
4823 1 1 -162.400000 -231.055578 0.0 0 0 0
4824 1 1 -156.600000 -231.055578 0.0 0 0 0
4825 1 1 -150.800000 -231.055578 0.0 0 0 0
4826 1 1 -145.000000 -231.055578 0.0 0 0 0
4827 1 1 -139.200000 -231.055578 0.0 0 0 0
4828 1 1 -133.400000 -231.055578 0.0 0 0 0
4829 1 1 -127.600000 -231.055578 0.0 0 0 0
4830 1 1 -121.800000 -231.055578 0.0 0 0 0
4831 1 1 -116.000000 -231.055578 0.0 0 0 0
4832 1 1 -110.200000 -231.055578 0.0 0 0 0
4833 1 1 -104.400000 -231.055578 0.0 0 0 0
4834 1 1 -98.600000 -231.055578 0.0 0 0 0
4835 1 1 -92.800000 -231.055578 0.0 0 0 0
4836 1 1 -87.000000 -231.055578 0.0 0 0 0
4837 1 1 -81.200000 -231.055578 0.0 0 0 0
4838 1 1 -75.400000 -231.055578 0.0 0 0 0
4839 1 1 -69.600000 -231.055578 0.0 0 0 0
4840 1 1 -63.800000 -231.055578 0.0 0 0 0
4841 1 1 -58.000000 -231.055578 0.0 0 0 0
4842 1 1 -52.200000 -231.055578 0.0 0 0 0
4843 1 1 -46.400000 -231.055578 0.0 0 0 0
4844 1 1 -40.600000 -231.055578 0.0 0 0 0
4845 1 1 -34.800000 -231.055578 0.0 0 0 0
4846 1 1 -29.000000 -231.055578 0.0 0 0 0
4847 1 1 -23.200000 -231.055578 0.0 0 0 0
4848 1 1 -17.400000 -231.055578 0.0 0 0 0
4849 1 1 -11.600000 -231.055578 0.0 0 0 0
4850 1 1 -5.800000 -231.055578 0.0 0 0 0
4851 1 1 0.000000 -231.055578 0.0 0 0 0
4852 1 1 5.800000 -231.055578 0.0 0 0 0
4853 1 1 11.600000 -231.055578 0.0 0 0 0
4854 1 1 17.400000 -231.055578 0.0 0 0 0
4855 1 1 23.200000 -231.055578 0.0 0 0 0
4856 1 1 29.000000 -231.055578 0.0 0 0 0
4857 1 1 34.800000 -231.055578 0.0 0 0 0
4858 1 1 40.600000 -231.055578 0.0 0 0 0
4859 1 1 46.400000 -231.055578 0.0 0 0 0
4860 1 1 52.200000 -231.055578 0.0 0 0 0
4861 1 1 58.000000 -231.055578 0.0 0 0 0
4862 1 1 63.800000 -231.055578 0.0 0 0 0
4863 1 1 69.600000 -231.055578 0.0 0 0 0
4864 1 1 75.400000 -231.055578 0.0 0 0 0
4865 1 1 81.200000 -231.055578 0.0 0 0 0
4866 1 1 87.000000 -231.055578 0.0 0 0 0
4867 1 1 92.800000 -231.055578 0.0 0 0 0
4868 1 1 98.600000 -231.055578 0.0 0 0 0
4869 1 1 104.400000 -231.055578 0.0 0 0 0
4870 1 1 110.200000 -231.055578 0.0 0 0 0
4871 1 1 116.000000 -231.055578 0.0 0 0 0
4872 1 1 121.800000 -231.055578 0.0 0 0 0
4873 1 1 127.600000 -231.055578 0.0 0 0 0
4874 1 1 133.400000 -231.055578 0.0 0 0 0
4875 1 1 139.200000 -231.055578 0.0 0 0 0
4876 1 1 145.000000 -231.055578 0.0 0 0 0
4877 1 1 150.800000 -231.055578 0.0 0 0 0
4878 1 1 156.600000 -231.055578 0.0 0 0 0
4879 1 1 162.400000 -231.055578 0.0 0 0 0
4880 1 1 168.200000 -231.055578 0.0 0 0 0
4881 1 1 174.000000 -231.055578 0.0 0 0 0
4882 1 2 179.800000 -231.055578 0.0 0 0 0
4972 1 2 -188.500000 -226.032630 0.0 0 0 0
4973 1 2 -182.700000 -226.032630 0.0 0 0 0
4974 1 1 -176.900000 -226.032630 0.0 0 0 0
4975 1 1 -171.100000 -226.032630 0.0 0 0 0
4976 1 1 -165.300000 -226.032630 0.0 0 0 0
4977 1 1 -159.500000 -226.032630 0.0 0 0 0
4978 1 1 -153.700000 -226.032630 0.0 0 0 0
4979 1 1 -147.900000 -226.032630 0.0 0 0 0
4980 1 1 -142.100000 -226.032630 0.0 0 0 0
4981 1 1 -136.300000 -226.032630 0.0 0 0 0
4982 1 1 -130.500000 -226.032630 0.0 0 0 0
4983 1 1 -124.700000 -226.032630 0.0 0 0 0
4984 1 1 -118.900000 -226.032630 0.0 0 0 0
4985 1 1 -113.100000 -226.032630 0.0 0 0 0
4986 1 1 -107.300000 -226.032630 0.0 0 0 0
4987 1 1 -101.500000 -226.032630 0.0 0 0 0
4988 1 1 -95.700000 -226.032630 0.0 0 0 0
4989 1 1 -89.900000 -226.032630 0.0 0 0 0
4990 1 1 -84.100000 -226.032630 0.0 0 0 0
4991 1 1 -78.300000 -226.032630 0.0 0 0 0
4992 1 1 -72.500000 -226.032630 0.0 0 0 0
4993 1 1 -66.700000 -226.032630 0.0 0 0 0
4994 1 1 -60.900000 -226.032630 0.0 0 0 0
4995 1 1 -55.100000 -226.032630 0.0 0 0 0
4996 1 1 -49.300000 -226.032630 0.0 0 0 0
4997 1 1 -43.500000 -226.032630 0.0 0 0 0
4998 1 1 -37.700000 -226.032630 0.0 0 0 0
4999 1 1 -31.900000 -226.032630 0.0 0 0 0
5000 1 1 -26.100000 -226.032630 0.0 0 0 0
5001 1 1 -20.300000 -226.032630 0.0 0 0 0
5002 1 1 -14.500000 -226.032630 0.0 0 0 0
5003 1 1 -8.700000 -226.032630 0.0 0 0 0
5004 1 1 -2.900000 -226.032630 0.0 0 0 0
5005 1 1 2.900000 -226.032630 0.0 0 0 0
5006 1 1 8.700000 -226.032630 0.0 0 0 0
5007 1 1 14.500000 -226.032630 0.0 0 0 0
5008 1 1 20.300000 -226.032630 0.0 0 0 0
5009 1 1 26.100000 -226.032630 0.0 0 0 0
5010 1 1 31.900000 -226.032630 0.0 0 0 0
5011 1 1 37.700000 -226.032630 0.0 0 0 0
5012 1 1 43.500000 -226.032630 0.0 0 0 0
5013 1 1 49.300000 -226.032630 0.0 0 0 0
5014 1 1 55.100000 -226.032630 0.0 0 0 0
5015 1 1 60.900000 -226.032630 0.0 0 0 0
5016 1 1 66.700000 -226.032630 0.0 0 0 0
5017 1 1 72.500000 -226.032630 0.0 0 0 0
5018 1 1 78.300000 -226.032630 0.0 0 0 0
5019 1 1 84.100000 -226.032630 0.0 0 0 0
5020 1 1 89.900000 -226.032630 0.0 0 0 0
5021 1 1 95.700000 -226.032630 0.0 0 0 0
5022 1 1 101.500000 -226.032630 0.0 0 0 0
5023 1 1 107.300000 -226.032630 0.0 0 0 0
5024 1 1 113.100000 -226.032630 0.0 0 0 0
5025 1 1 118.900000 -226.032630 0.0 0 0 0
5026 1 1 124.700000 -226.032630 0.0 0 0 0
5027 1 1 130.500000 -226.032630 0.0 0 0 0
5028 1 1 136.300000 -226.032630 0.0 0 0 0
5029 1 1 142.100000 -226.032630 0.0 0 0 0
5030 1 1 147.900000 -226.032630 0.0 0 0 0
5031 1 1 153.700000 -226.032630 0.0 0 0 0
5032 1 1 159.500000 -226.032630 0.0 0 0 0
5033 1 1 165.300000 -226.032630 0.0 0 0 0
5034 1 1 171.100000 -226.032630 0.0 0 0 0
5035 1 1 176.900000 -226.032630 0.0 0 0 0
5036 1 2 182.700000 -226.032630 0.0 0 0 0
5037 1 2 188.500000 -226.032630 0.0 0 0 0
5126 1 2 -191.400000 -221.009683 0.0 0 0 0
5127 1 1 -185.600000 -221.009683 0.0 0 0 0
5128 1 1 -179.800000 -221.009683 0.0 0 0 0
5129 1 1 -174.000000 -221.009683 0.0 0 0 0
5130 1 1 -168.200000 -221.009683 0.0 0 0 0
5131 1 1 -162.400000 -221.009683 0.0 0 0 0
5132 1 1 -156.600000 -221.009683 0.0 0 0 0
5133 1 1 -150.800000 -221.009683 0.0 0 0 0
5134 1 1 -145.000000 -221.009683 0.0 0 0 0
5135 1 1 -139.200000 -221.009683 0.0 0 0 0
5136 1 1 -133.400000 -221.009683 0.0 0 0 0
5137 1 1 -127.600000 -221.009683 0.0 0 0 0
5138 1 1 -121.800000 -221.009683 0.0 0 0 0
5139 1 1 -116.000000 -221.009683 0.0 0 0 0
5140 1 1 -110.200000 -221.009683 0.0 0 0 0
5141 1 1 -104.400000 -221.009683 0.0 0 0 0
5142 1 1 -98.600000 -221.009683 0.0 0 0 0
5143 1 1 -92.800000 -221.009683 0.0 0 0 0
5144 1 1 -87.000000 -221.009683 0.0 0 0 0
5145 1 1 -81.200000 -221.009683 0.0 0 0 0
5146 1 1 -75.400000 -221.009683 0.0 0 0 0
5147 1 1 -69.600000 -221.009683 0.0 0 0 0
5148 1 1 -63.800000 -221.009683 0.0 0 0 0
5149 1 1 -58.000000 -221.009683 0.0 0 0 0
5150 1 1 -52.200000 -221.009683 0.0 0 0 0
5151 1 1 -46.400000 -221.009683 0.0 0 0 0
5152 1 1 -40.600000 -221.009683 0.0 0 0 0
5153 1 1 -34.800000 -221.009683 0.0 0 0 0
5154 1 1 -29.000000 -221.009683 0.0 0 0 0
5155 1 1 -23.200000 -221.009683 0.0 0 0 0
5156 1 1 -17.400000 -221.009683 0.0 0 0 0
5157 1 1 -11.600000 -221.009683 0.0 0 0 0
5158 1 1 -5.800000 -221.009683 0.0 0 0 0
5159 1 1 0.000000 -221.009683 0.0 0 0 0
5160 1 1 5.800000 -221.009683 0.0 0 0 0
5161 1 1 11.600000 -221.009683 0.0 0 0 0
5162 1 1 17.400000 -221.009683 0.0 0 0 0
5163 1 1 23.200000 -221.009683 0.0 0 0 0
5164 1 1 29.000000 -221.009683 0.0 0 0 0
5165 1 1 34.800000 -221.009683 0.0 0 0 0
5166 1 1 40.600000 -221.009683 0.0 0 0 0
5167 1 1 46.400000 -221.009683 0.0 0 0 0
5168 1 1 52.200000 -221.009683 0.0 0 0 0
5169 1 1 58.000000 -221.009683 0.0 0 0 0
5170 1 1 63.800000 -221.009683 0.0 0 0 0
5171 1 1 69.600000 -221.009683 0.0 0 0 0
5172 1 1 75.400000 -221.009683 0.0 0 0 0
5173 1 1 81.200000 -221.009683 0.0 0 0 0
5174 1 1 87.000000 -221.009683 0.0 0 0 0
5175 1 1 92.800000 -221.009683 0.0 0 0 0
5176 1 1 98.600000 -221.009683 0.0 0 0 0
5177 1 1 104.400000 -221.009683 0.0 0 0 0
5178 1 1 110.200000 -221.009683 0.0 0 0 0
5179 1 1 116.000000 -221.009683 0.0 0 0 0
5180 1 1 121.800000 -221.009683 0.0 0 0 0
5181 1 1 127.600000 -221.009683 0.0 0 0 0
5182 1 1 133.400000 -221.009683 0.0 0 0 0
5183 1 1 139.200000 -221.009683 0.0 0 0 0