LAMMPS data file via write_data, version 29 Aug 2024, timestep = 473, units = micro

9407 atoms
2 atom types
27870 bonds
1 bond types

-893.1999999999999 893.1999999999999 xlo xhi
-893.1999999999999 893.1999999999999 ylo yhi
-5 5 zlo zhi

Masses

1 31.06
2 31.06

Bond Coeffs # harmonic

1 1e-07 5.8

Atoms # bond

2995 1 2 8.038309059209569 -294.89331237707563 0 0 0 0
2996 1 2 13.739132141994032 -293.82531603869626 0 0 0 0
2997 1 2 19.4399552247785 -292.7573197003168 0 0 0 0
2998 1 2 25.140778307562957 -291.6893233619374 0 0 0 0
2999 1 2 30.84160139034742 -290.62132702355797 0 0 0 0
3000 1 2 36.54242447313188 -289.55333068517854 0 0 0 0
3001 1 2 42.24324755591635 -288.48533434679916 0 0 0 0
3002 1 2 47.94407063870081 -287.4173380084197 0 0 0 0
3003 1 2 53.64489372148527 -286.34934167004025 0 0 0 0
3004 1 2 59.345716804269735 -285.2813453316609 0 0 0 0
3005 1 2 65.0465398870542 -284.2133489932814 0 0 0 0
3006 1 2 70.74736296983865 -283.145352654902 0 0 0 0
3007 1 2 76.44818605262311 -282.0773563165226 0 0 0 0
3008 1 2 82.14900913540758 -281.0093599781431 0 0 0 0
3009 1 2 87.84983221819203 -279.9413636397637 0 0 0 0
3010 1 2 93.5506553009765 -278.8733673013843 0 0 0 0
3011 1 2 99.25147838376095 -277.8053709630048 0 0 0 0
3144 1 2 -18.540306894677446 -294.76223764081305 0 0 0 0
3145 1 2 -12.839483811892988 -293.6942413024337 0 0 0 0
3146 1 2 -7.138660729108524 -292.62624496405425 0 0 0 0
3147 1 2 -1.437837646324059 -291.5582486256748 0 0 0 0
3148 1 2 4.262985436460405 -290.4902522872954 0 0 0 0
3149 1 1 10.303158186636312 -289.23202381474516 0 0 0 0
3150 1 1 16.186004612887302 -288.8796370606928 0 0 0 0
3151 1 1 21.318636508068952 -286.6951517494595 0 0 0 0
3152 1 1 26.90729738638021 -286.18338175555675 0 0 0 0
3153 1 1 32.77870132581684 -285.05630853693856 0 0 0 0
3154 1 1 38.66121675545179 -284.1725864879618 0 0 0 0
3155 1 1 44.21627963343658 -283.4649213506832 0 0 0 0
3156 1 1 49.29945026899146 -281.2571711934977 0 0 0 0
3157 1 1 55.029948948137694 -280.52330077683393 0 0 0 0
3158 1 1 61.015605500785945 -279.34889426118764 0 0 0 0
3159 1 1 66.74972723893956 -278.37356735469086 0 0 0 0
3160 1 1 72.23245297200897 -277.5736270780381 0 0 0 0
3161 1 1 77.90085964929256 -277.1177172987554 0 0 0 0
3162 1 1 83.82927667543106 -275.5902634179074 0 0 0 0
3163 1 1 89.5544257335063 -275.1470247962303 0 0 0 0
3164 1 1 95.21406509302638 -273.0668273789843 0 0 0 0
3165 1 2 101.17697784379625 -272.33431453484513 0 0 0 0
3166 1 2 106.87780092658072 -271.2663181964657 0 0 0 0
3167 1 2 112.57862400936519 -270.1983218580863 0 0 0 0
3168 1 2 118.27944709214964 -269.13032551970684 0 0 0 0
3169 1 2 123.9802701749341 -268.0623291813274 0 0 0 0
3296 1 2 -33.71727649885824 -292.4951712106922 0 0 0 0
3297 1 2 -28.016453416073787 -291.4271748723128 0 0 0 0
3298 1 2 -22.315630333289324 -290.35917853393335 0 0 0 0
3299 1 1 -16.586169968231466 -289.50020675707043 0 0 0 0
3300 1 1 -10.837895839840808 -288.72844159990564 0 0 0 0
3301 1 1 -4.995207106585956 -287.17117529970693 0 0 0 0
3302 1 1 0.0949905079062557 -284.9894880252768 0 0 0 0
3303 1 1 5.832095448552102 -284.5146751693728 0 0 0 0
3304 1 1 11.842350370247338 -283.76976828565967 0 0 0 0
3305 1 1 17.58977954295291 -282.7570540959282 0 0 0 0
3306 1 1 23.433983835167165 -281.11243687955346 0 0 0 0
3307 1 1 28.70664419979337 -280.788983167963 0 0 0 0
3308 1 1 34.36655886344564 -280.4731180107803 0 0 0 0
3309 1 1 40.2082956769771 -278.7544710791172 0 0 0 0
3310 1 1 45.05844725093408 -277.2946374978219 0 0 0 0
3311 1 1 50.78270919168374 -275.6671108285924 0 0 0 0
3312 1 1 56.56667956732748 -275.2630240208898 0 0 0 0
3313 1 1 62.84773564169722 -273.7720925109328 0 0 0 0
3314 1 1 69.36347715205099 -272.54670093668534 0 0 0 0
3315 1 1 74.82116689491176 -272.1419745028709 0 0 0 0
3316 1 1 79.82810978188245 -271.8386946491202 0 0 0 0
3317 1 1 85.98042548767073 -270.40207489701004 0 0 0 0
3318 1 1 91.3661097977542 -269.45469534669684 0 0 0 0
3319 1 1 96.36182350364025 -267.08145363640045 0 0 0 0
3320 1 1 101.75002814443758 -266.8183887780266 0 0 0 0
3321 1 1 107.5156372505843 -266.2909294870153 0 0 0 0
3322 1 1 113.7615058637154 -264.7480108877112 0 0 0 0
3323 1 1 120.25173082010444 -263.63297682639893 0 0 0 0
3324 1 2 125.9057698191067 -262.5912737360682 0 0 0 0
3325 1 2 131.60659290189116 -261.52327739768884 0 0 0 0
3326 1 2 137.3074159846756 -260.4552810593094 0 0 0 0
3447 1 2 -48.89424610303904 -290.2281047805713 0 0 0 0
3448 1 2 -43.193423020254585 -289.16010844219187 0 0 0 0
3449 1 2 -37.49259993747012 -288.0921121038125 0 0 0 0
3450 1 1 -32.0256028295717 -286.57331743211313 0 0 0 0
3451 1 1 -26.58298661358091 -286.16142392559476 0 0 0 0
3452 1 1 -20.83364522025294 -285.5310002768047 0 0 0 0
3453 1 1 -14.846828836345637 -284.2217879739047 0 0 0 0
3454 1 1 -9.22384822966595 -283.5882754551054 0 0 0 0
3455 1 1 -4.399808247278336 -280.9781054953022 0 0 0 0
3456 1 1 1.454004143531255 -280.0710047538665 0 0 0 0
3457 1 1 7.584910569987229 -278.99495048870665 0 0 0 0
3458 1 1 13.894179876394661 -278.05355731855803 0 0 0 0
3459 1 1 20.082608174357716 -276.9513628894332 0 0 0 0
3460 1 1 26.3729123904106 -275.6492983220411 0 0 0 0
3461 1 1 31.415570006331627 -275.4524557747656 0 0 0 0
3462 1 1 36.235720922225184 -274.96784149243365 0 0 0 0
3463 1 1 40.871206518327305 -272.3948742929417 0 0 0 0
3464 1 1 46.3890853553454 -271.9867189205312 0 0 0 0
3465 1 1 52.42192062743771 -270.5708952299136 0 0 0 0
3466 1 1 58.403438343590814 -269.95126271055824 0 0 0 0
3467 1 1 65.00378421393293 -268.70306017296235 0 0 0 0
3468 1 1 71.5059598132351 -267.18717053554457 0 0 0 0
3469 1 1 77.37498834670477 -266.77634446735425 0 0 0 0
3470 1 1 82.91553084171986 -266.4295527944048 0 0 0 0
3471 1 1 88.8891767305051 -264.6095204678995 0 0 0 0
3472 1 1 93.78964000751154 -262.16668223661975 0 0 0 0
3473 1 1 99.24832989152621 -261.5547321084457 0 0 0 0
3474 1 1 103.81917666795974 -261.3635279567632 0 0 0 0
3475 1 1 109.37969356445278 -261.0452461760187 0 0 0 0
3476 1 1 115.97675741785025 -259.5886069370198 0 0 0 0
3477 1 1 122.38280868885177 -258.1500151943908 0 0 0 0
3478 1 1 128.22858418503046 -257.6944135909453 0 0 0 0
3479 1 1 134.09246223703542 -255.95051115665433 0 0 0 0
3480 1 2 139.2329156288482 -254.98422561405022 0 0 0 0
3481 1 2 144.93373871163269 -253.91622927567082 0 0 0 0
3482 1 2 150.63456179441712 -252.84823293729136 0 0 0 0
3599 1 2 -64.07121589135714 -287.96103736754986 0 0 0 0
3600 1 2 -58.370392808572674 -286.8930410291704 0 0 0 0
3601 1 2 -52.66956972578823 -285.82504469079095 0 0 0 0
3602 1 1 -47.642420768541804 -284.34930483648975 0 0 0 0
3603 1 1 -41.77737788059983 -283.63444477309054 0 0 0 0
3604 1 1 -35.565276468598846 -282.1913180368232 0 0 0 0
3605 1 1 -29.225898320402827 -281.03426579995323 0 0 0 0
3606 1 1 -24.419647166892442 -280.7733481442283 0 0 0 0
3607 1 1 -19.07117597435993 -280.52284874105715 0 0 0 0
3608 1 1 -13.144508121175278 -278.8149551350369 0 0 0 0
3609 1 1 -8.217695045353835 -276.8584824027547 0 0 0 0
3610 1 1 -2.6730274707685275 -275.50616476318487 0 0 0 0
3611 1 1 3.097976103080036 -275.21300752257645 0 0 0 0
3612 1 1 9.499796989815128 -273.81038342929725 0 0 0 0
3613 1 1 16.135724481205067 -272.51199996378324 0 0 0 0
3614 1 1 22.178361763762876 -271.93672296127704 0 0 0 0
3615 1 1 28.26075949523505 -270.55372329984937 0 0 0 0
3616 1 1 34.025651594697706 -270.02385299342154 0 0 0 0
3617 1 1 38.64015879010999 -267.3640632813186 0 0 0 0
3618 1 1 43.69795819175154 -266.81044512563506 0 0 0 0
3619 1 1 48.34241527073421 -266.6068679605286 0 0 0 0
3620 1 1 54.21238427327259 -265.9588831374413 0 0 0 0
3621 1 1 60.57685202614498 -264.5325854560981 0 0 0 0
3622 1 1 67.05683089117542 -263.4639171807111 0 0 0 0
3623 1 1 73.14376645923598 -262.6872265560889 0 0 0 0
3624 1 1 79.1955722537519 -261.5190669249515 0 0 0 0
3625 1 1 84.79418746886995 -261.09591510558005 0 0 0 0
3626 1 1 89.65547391447984 -258.3004487226962 0 0 0 0
3627 1 1 95.35566079761197 -257.3202421045032 0 0 0 0
3628 1 1 101.2856021780789 -256.2270084694169 0 0 0 0
3629 1 1 106.96086560771444 -256.02337859548453 0 0 0 0
3630 1 1 112.52227214216298 -255.17742993396485 0 0 0 0
3631 1 1 118.48171711791994 -254.2655658222882 0 0 0 0
3632 1 1 124.68952344634043 -252.84799286184696 0 0 0 0
3633 1 1 130.1612046414135 -252.19051512458316 0 0 0 0
3634 1 1 135.06973216339307 -249.7436756256433 0 0 0 0
3635 1 1 140.5385470739787 -249.4251831390638 0 0 0 0
3636 1 1 146.3663488382575 -248.4282498870766 0 0 0 0
3637 1 2 152.56006125445242 -247.3771765091316 0 0 0 0
3638 1 2 158.2608843372369 -246.30918017075217 0 0 0 0
3639 1 2 163.96170742002136 -245.24118383237277 0 0 0 0
3751 1 2 -73.54736241275347 -284.62597459904947 0 0 0 0
3752 1 2 -67.84653932996902 -283.5579782606701 0 0 0 0
3753 1 1 -62.4839443440184 -283.17072491385636 0 0 0 0
3754 1 1 -57.77350355588512 -281.0145051239476 0 0 0 0
3755 1 1 -52.22574528165829 -280.5270686232215 0 0 0 0
3756 1 1 -46.02726113561442 -278.9649920752933 0 0 0 0
3757 1 1 -39.6817683569498 -278.10179530965047 0 0 0 0
3758 1 1 -33.264381954243795 -277.0561277988873 0 0 0 0
3759 1 1 -27.023823815050154 -275.6817163376573 0 0 0 0
3760 1 1 -21.411843277115956 -275.468661521342 0 0 0 0
3761 1 1 -16.405784445975996 -274.60210324049484 0 0 0 0
3762 1 1 -11.161057050958098 -272.26128821537515 0 0 0 0
3763 1 1 -5.141391280852797 -270.62243070712555 0 0 0 0
3764 1 1 0.17500907863355686 -270.16119107874556 0 0 0 0
3765 1 1 5.31500023551636 -269.79103411844227 0 0 0 0
3766 1 1 11.729240965256235 -268.79264877802706 0 0 0 0
3767 1 1 17.967191743404946 -267.47601473987396 0 0 0 0
3768 1 1 23.911201981802513 -266.7820370713727 0 0 0 0
3769 1 1 29.66291932733539 -266.2992386056643 0 0 0 0
3770 1 1 35.01138684091439 -264.04194440528886 0 0 0 0
3771 1 1 40.39136634651644 -261.86943808952657 0 0 0 0
3772 1 1 46.076775477997906 -261.41943488591625 0 0 0 0
3773 1 1 51.581036647403295 -261.2000234062558 0 0 0 0
3774 1 1 57.49272158162853 -260.0670267437927 0 0 0 0
3775 1 1 63.63799067300745 -258.8952257390113 0 0 0 0
3776 1 1 69.30104998286726 -258.0309207290877 0 0 0 0
3777 1 1 74.8984968804697 -257.7972971348853 0 0 0 0
3778 1 1 80.78223108214839 -256.2870131365221 0 0 0 0
3779 1 1 85.79393981457518 -255.01440517669263 0 0 0 0
3780 1 1 91.27957069196734 -252.83540982848018 0 0 0 0
3781 1 1 96.97358643450627 -252.48224635088224 0 0 0 0
3782 1 1 103.00968274974589 -251.6026447919437 0 0 0 0
3783 1 1 109.23805571017488 -250.50297166391942 0 0 0 0
3784 1 1 115.73427848782194 -249.52050521282143 0 0 0 0
3785 1 1 121.71537619158373 -248.68626520940083 0 0 0 0
3786 1 1 127.93257490623304 -247.33402148467044 0 0 0 0
3787 1 1 132.69867364447313 -244.6787086693404 0 0 0 0
3788 1 1 137.86719996463208 -244.08989971004354 0 0 0 0
3789 1 1 142.39179021713838 -243.94317342343012 0 0 0 0
3790 1 1 147.93134052226975 -243.7147685504089 0 0 0 0
3791 1 1 154.0325522289942 -242.0115498627328 0 0 0 0
3792 1 1 160.0999051251951 -241.1386412904895 0 0 0 0
3793 1 2 165.88720706419392 -239.77012838711357 0 0 0 0
3794 1 2 171.58803014697838 -238.70213204873414 0 0 0 0
3904 1 2 -83.02350893414982 -281.2909118305492 0 0 0 0
3905 1 2 -77.32268585136534 -280.22291549216976 0 0 0 0
3906 1 1 -70.74517765000174 -278.8775063724546 0 0 0 0
3907 1 1 -65.37430587059549 -278.06279304750683 0 0 0 0
3908 1 1 -60.29441201682956 -275.94914549265815 0 0 0 0
3909 1 1 -55.643677168689315 -275.4729793855691 0 0 0 0
3910 1 1 -50.29750163579658 -275.2237334834017 0 0 0 0
3911 1 1 -43.73224132957705 -273.8476556313438 0 0 0 0
3912 1 1 -37.29099261711321 -272.4862186917182 0 0 0 0
3913 1 1 -31.35603741894408 -271.99520640584143 0 0 0 0
3914 1 1 -25.382392174850224 -271.0585554050727 0 0 0 0
3915 1 1 -19.51469928504061 -270.00095117191245 0 0 0 0
3916 1 1 -14.757360494378792 -267.4377711469065 0 0 0 0
3917 1 1 -9.155217799083525 -266.7149796141409 0 0 0 0
3918 1 1 -3.2193997725477512 -265.573779749226 0 0 0 0
3919 1 1 2.706495866653185 -264.76853415205693 0 0 0 0
3920 1 1 8.387701743086923 -264.1199768465993 0 0 0 0
3921 1 1 13.895308516974447 -263.32609996915727 0 0 0 0
3922 1 1 19.651684262074863 -263.0353742751779 0 0 0 0
3923 1 1 25.61788996364299 -261.73436680905206 0 0 0 0
3924 1 1 31.22913294025145 -261.04324114231457 0 0 0 0
3925 1 1 36.09054430989451 -258.20339256199685 0 0 0 0
3926 1 1 41.80487907389187 -257.5281418099227 0 0 0 0
3927 1 1 47.8949612375881 -256.1908460202442 0 0 0 0
3928 1 1 53.85148218604885 -255.69653048728713 0 0 0 0
3929 1 1 60.29684118176572 -254.5687464788402 0 0 0 0
3930 1 1 66.79921852439367 -253.08961851297457 0 0 0 0
3931 1 1 72.52799524375799 -252.71519258849167 0 0 0 0
3932 1 1 77.21943491365836 -252.09071270971288 0 0 0 0
3933 1 1 82.1469663633525 -249.853832626003 0 0 0 0
3934 1 1 87.1480470728941 -249.19295794775084 0 0 0 0
3935 1 1 93.22867446816856 -247.7388947670645 0 0 0 0
3936 1 1 98.88872475740052 -247.2581232568449 0 0 0 0
3937 1 1 104.87652015865451 -246.7713927305071 0 0 0 0
3938 1 1 111.45882025488518 -245.35520304554367 0 0 0 0
3939 1 1 117.83347137811272 -244.1000307612594 0 0 0 0
3940 1 1 123.63358037994482 -243.69490543755188 0 0 0 0
3941 1 1 129.12783196951685 -241.37397944499864 0 0 0 0
3942 1 1 134.43679149153888 -239.17245099926996 0 0 0 0
3943 1 1 140.07361411087805 -238.69911685935028 0 0 0 0
3944 1 1 145.20932299461705 -238.608272239771 0 0 0 0
3945 1 1 149.98574447343924 -238.31836640980518 0 0 0 0
3946 1 1 156.36755172370147 -236.56073730655692 0 0 0 0
3947 1 1 162.3542671401711 -235.2007286803739 0 0 0 0
3948 1 1 168.286281471213 -234.6490548374318 0 0 0 0
3949 1 2 173.51352979115097 -233.23107660347495 0 0 0 0
3950 1 2 179.21435287393547 -232.16308026509554 0 0 0 0
4055 1 2 -98.2004787224679 -279.02384441752776 0 0 0 0
4056 1 2 -92.49965563968344 -277.9558480791483 0 0 0 0
4057 1 2 -86.798832556899 -276.8878517407689 0 0 0 0
4058 1 1 -80.64682560042475 -275.87011078285906 0 0 0 0
4059 1 1 -74.76118112297378 -275.3470004836859 0 0 0 0
4060 1 1 -69.53760251619384 -272.9277637607867 0 0 0 0
4061 1 1 -64.30352178279686 -272.0187608822997 0 0 0 0
4062 1 1 -58.36919678137015 -270.4531312169235 0 0 0 0
4063 1 1 -52.634332515127824 -270.1500141437618 0 0 0 0
4064 1 1 -47.09525074799144 -269.54862382012743 0 0 0 0
4065 1 1 -41.036821577977 -268.4108223894476 0 0 0 0
4066 1 1 -34.736491573086774 -267.07569937322836 0 0 0 0
4067 1 1 -29.40989399745807 -266.6953489599666 0 0 0 0
4068 1 1 -23.84995532873403 -266.45435222744305 0 0 0 0
4069 1 1 -18.742231255473847 -263.95084204354725 0 0 0 0
4070 1 1 -13.258076610408072 -262.3133995793659 0 0 0 0
4071 1 1 -7.389055834919939 -261.4235267170694 0 0 0 0
4072 1 1 -1.528151497878568 -260.9459927272042 0 0 0 0
4073 1 1 4.828274791346643 -259.47823643286546 0 0 0 0
4074 1 1 11.400368081527592 -258.342760454079 0 0 0 0
4075 1 1 16.929317856618702 -258.0337199055986 0 0 0 0
4076 1 1 21.627625135038073 -257.81286497534865 0 0 0 0
4077 1 1 27.315842866244587 -256.9018155459865 0 0 0 0
4078 1 1 32.49633749919348 -254.82577285874376 0 0 0 0
4079 1 1 38.01654091535937 -252.77727014522432 0 0 0 0
4080 1 1 43.617723446610505 -252.47169588193236 0 0 0 0
4081 1 1 49.97351515727157 -251.0778924260788 0 0 0 0
4082 1 1 56.192396909919836 -249.98270206824043 0 0 0 0
4083 1 1 62.46668666517895 -249.21574997571773 0 0 0 0
4084 1 1 68.54267917872104 -248.35008001751748 0 0 0 0
4085 1 1 74.47830913378313 -247.22244213458293 0 0 0 0
4086 1 1 79.17856498861912 -244.83230509268952 0 0 0 0
4087 1 1 84.75783558635301 -244.08399264556047 0 0 0 0
4088 1 1 90.19972805363501 -243.705815444155 0 0 0 0
4089 1 1 96.34858484067469 -242.42665081943207 0 0 0 0
4090 1 1 101.96210562851459 -241.9687502279061 0 0 0 0
4091 1 1 107.46399861558825 -241.00791978751627 0 0 0 0
4092 1 1 113.40659008423651 -240.18529151489466 0 0 0 0
4093 1 1 119.53304363068155 -238.90245739530292 0 0 0 0
4094 1 1 125.18748566723683 -238.26446181537386 0 0 0 0
4095 1 1 130.05467844944 -235.5051919421595 0 0 0 0
4096 1 1 135.7894344213765 -234.86883844375578 0 0 0 0
4097 1 1 141.75685718863204 -233.72342928074548 0 0 0 0
4098 1 1 147.48955035906752 -233.23177120310154 0 0 0 0
4099 1 1 152.7216753316332 -232.56734499231104 0 0 0 0
4100 1 1 158.04537151816314 -230.35056422908923 0 0 0 0
4101 1 1 163.9838419156945 -229.7126685939693 0 0 0 0
4102 1 1 169.95142978084795 -228.82950934876004 0 0 0 0
4103 1 1 175.5594928958201 -227.21592788076376 0 0 0 0
4104 1 2 181.13985233397074 -226.69202383693585 0 0 0 0
4105 1 2 186.84067541675518 -225.62402749855642 0 0 0 0
4106 1 2 192.54149849953967 -224.55603116017696 0 0 0 0
4209 1 2 -101.97580216107978 -274.620785310648 0 0 0 0
4210 1 1 -95.86759660718003 -273.28238846589045 0 0 0 0
4211 1 1 -90.2770540573132 -272.20152510424197 0 0 0 0
4212 1 1 -84.78530001693588 -271.960430024072 0 0 0 0
4213 1 1 -79.02406624006152 -271.5354015928408 0 0 0 0
4214 1 1 -73.28065382105527 -269.79469009287135 0 0 0 0
4215 1 1 -68.3405645993032 -267.2583777255574 0 0 0 0
4216 1 1 -62.677468949661225 -266.7324225676145 0 0 0 0
4217 1 1 -56.804058694737975 -266.06720168041585 0 0 0 0
4218 1 1 -50.62629354792779 -264.7756633248009 0 0 0 0
4219 1 1 -44.202017161877855 -263.84075191943657 0 0 0 0
4220 1 1 -38.02993233433148 -262.98827966429354 0 0 0 0
4221 1 1 -31.73835930444891 -261.61604184805526 0 0 0 0
4222 1 1 -26.429185483576592 -261.3972382300866 0 0 0 0
4223 1 1 -21.959108356515248 -260.6611613975932 0 0 0 0
4224 1 1 -17.346270169519713 -258.0592998305085 0 0 0 0
4225 1 1 -11.713439439065533 -257.7615096022307 0 0 0 0
4226 1 1 -5.5578611737665895 -256.2689355576056 0 0 0 0
4227 1 1 0.428940822017103 -255.6594164439821 0 0 0 0
4228 1 1 7.046928448724346 -254.48822780745914 0 0 0 0
4229 1 1 13.38311259640226 -253.13018154475563 0 0 0 0
4230 1 1 19.2415529544671 -252.68354352774423 0 0 0 0
4231 1 1 24.74350477982221 -252.4366450724728 0 0 0 0
4232 1 1 30.08327242844282 -250.1958348752276 0 0 0 0
4233 1 1 35.46304103827496 -248.22230911402698 0 0 0 0
4234 1 1 41.26995593706901 -247.40827793074078 0 0 0 0
4235 1 1 46.39517365464253 -246.93066546224017 0 0 0 0
4236 1 1 52.26142784693181 -245.12097823976615 0 0 0 0
4237 1 1 58.1743591658205 -244.29440487537423 0 0 0 0
4238 1 1 64.23320276885408 -243.79901971545732 0 0 0 0
4239 1 1 70.01522267292977 -243.5613450453605 0 0 0 0
4240 1 1 75.17086934377598 -241.13148455374736 0 0 0 0
4241 1 1 80.69817019217821 -239.8071279535389 0 0 0 0
4242 1 1 86.58942302254299 -238.84186251367862 0 0 0 0
4243 1 1 92.30130294613008 -238.5327665248676 0 0 0 0
4244 1 1 98.12880022906893 -237.6404721812272 0 0 0 0
4245 1 1 103.81859427661985 -236.3190377423802 0 0 0 0
4246 1 1 109.21685005254496 -235.14885510348972 0 0 0 0
4247 1 1 114.98432181119766 -234.65143194783786 0 0 0 0
4248 1 1 120.73626955395669 -233.80477519928397 0 0 0 0
4249 1 1 125.89119235596995 -232.12854981030424 0 0 0 0
4250 1 1 131.60690081280572 -230.4869339096102 0 0 0 0
4251 1 1 137.40667375476514 -229.89954686801894 0 0 0 0
4252 1 1 143.16351359753156 -229.4717412393501 0 0 0 0
4253 1 1 148.92773049532732 -227.71079301274432 0 0 0 0
4254 1 1 153.82127362467088 -226.1703058157587 0 0 0 0
4255 1 1 159.66139578665965 -224.78053700362193 0 0 0 0
4256 1 1 165.51821335516328 -224.39760489365372 0 0 0 0
4257 1 1 171.74199897917177 -222.97239517400112 0 0 0 0
4258 1 1 178.27568433401402 -221.5140607489452 0 0 0 0
4259 1 1 183.21086418005734 -221.13353329726965 0 0 0 0
4260 1 1 188.45243988118534 -220.89599634103743 0 0 0 0
4261 1 2 194.46699814371223 -219.08497571491776 0 0 0 0
4361 1 2 -111.45194868247613 -271.2857225421476 0 0 0 0
4362 1 2 -105.75112559969163 -270.21772620376817 0 0 0 0
4363 1 1 -99.60560411442103 -269.10683751154585 0 0 0 0
4364 1 1 -93.05280058067488 -267.44515979447897 0 0 0 0
4365 1 1 -87.07132806687535 -266.8304336113795 0 0 0 0
4366 1 1 -82.21602587068345 -266.6547620932125 0 0 0 0
4367 1 1 -77.27702848976173 -266.1713145496263 0 0 0 0
4368 1 1 -72.65761253745332 -263.54751888165805 0 0 0 0
4369 1 1 -66.91691045808264 -262.8460141302122 0 0 0 0
4370 1 1 -60.922127044447215 -261.51714685725085 0 0 0 0
4371 1 1 -55.08160566435929 -261.12337720087095 0 0 0 0
4372 1 1 -48.553603749862084 -259.6757612383176 0 0 0 0
4373 1 1 -41.957529615457666 -258.3449175590891 0 0 0 0
4374 1 1 -35.99370816248587 -257.8876681366797 0 0 0 0
4375 1 1 -29.97011117804844 -256.73245617380513 0 0 0 0
4376 1 1 -24.173328559932084 -255.8333965520369 0 0 0 0
4377 1 1 -19.543986968383628 -253.18012075286532 0 0 0 0
4378 1 1 -14.195966127949196 -252.71278093964398 0 0 0 0
4379 1 1 -9.430136759088843 -252.45115693765288 0 0 0 0
4380 1 1 -2.9759457996129677 -250.93345887111298 0 0 0 0
4381 1 1 2.813469109229279 -249.92355099708323 0 0 0 0
4382 1 1 8.887347971622162 -249.10724517537994 0 0 0 0
4383 1 1 14.87560422285844 -248.67899562915628 0 0 0 0
4384 1 1 20.961956061267305 -247.44814821369636 0 0 0 0
4385 1 1 26.48424987359977 -246.86476815741557 0 0 0 0
4386 1 1 31.402569978401534 -244.1353631296162 0 0 0 0
4387 1 1 37.11939405067831 -243.51488651772988 0 0 0 0
4388 1 1 43.05802067187555 -241.90776075607542 0 0 0 0
4389 1 1 48.26422865950468 -241.03595036658118 0 0 0 0
4390 1 1 53.70667861675853 -239.03445080513706 0 0 0 0
4391 1 1 59.55333282485397 -238.84962107997848 0 0 0 0
4392 1 1 65.73807894011442 -238.38665267700625 0 0 0 0
4393 1 1 71.41514624243301 -237.83903893259 0 0 0 0
4394 1 1 76.64067434347164 -235.41512577844452 0 0 0 0
4395 1 1 82.22906286088953 -235.08188772486344 0 0 0 0
4396 1 1 88.08368256840104 -234.3507695430757 0 0 0 0
4397 1 1 94.0203799472702 -233.2594182261601 0 0 0 0
4398 1 1 99.5859986111664 -232.58295398849398 0 0 0 0
4399 1 1 104.54546247103175 -230.21465455570237 0 0 0 0
4400 1 1 110.31674420705731 -229.77333198740683 0 0 0 0
4401 1 1 116.4201273321232 -228.8046205889129 0 0 0 0
4402 1 1 122.12775638425134 -227.5401746639349 0 0 0 0
4403 1 1 127.42826085590345 -226.45957208331555 0 0 0 0
4404 1 1 133.1070323249095 -226.16621061949309 0 0 0 0
4405 1 1 139.0581022747023 -224.97765598919216 0 0 0 0
4406 1 1 144.75921525233574 -224.26993897991528 0 0 0 0
4407 1 1 149.6066846570063 -221.50638446296892 0 0 0 0
4408 1 1 155.17970821190647 -220.9863213643759 0 0 0 0
4409 1 1 161.26279967496686 -219.74229336125848 0 0 0 0
4410 1 1 167.35654699274437 -219.0288308699181 0 0 0 0
4411 1 1 173.99531918787184 -217.7455058932214 0 0 0 0
4412 1 1 180.40398198941907 -216.13567954412184 0 0 0 0
4413 1 1 186.06941706897317 -215.8387008343363 0 0 0 0
4414 1 1 190.81017080405897 -215.50480193653905 0 0 0 0
4415 1 2 196.39249778788482 -213.61392026965856 0 0 0 0
4416 1 2 202.0933208706693 -212.54592393127913 0 0 0 0
4514 1 2 -120.92809538800975 -267.95065879074673 0 0 0 0
4515 1 2 -115.22727230522528 -266.88266245236736 0 0 0 0
4516 1 1 -110.1978160109487 -266.41706635754326 0 0 0 0
4517 1 1 -103.97520255216354 -264.77900320323363 0 0 0 0
4518 1 1 -97.41010545890472 -263.61257684776916 0 0 0 0
4519 1 1 -91.21116715119514 -262.7208434847079 0 0 0 0
4520 1 1 -85.0995078376262 -261.48450344470166 0 0 0 0
4521 1 1 -79.51196253152536 -261.1765805105775 0 0 0 0
4522 1 1 -74.90867237879947 -258.6163267461622 0 0 0 0
4523 1 1 -69.8847669626007 -258.0395383723462 0 0 0 0
4524 1 1 -64.98988766388372 -257.7807640384344 0 0 0 0
4525 1 1 -58.75749156108542 -256.4011770178926 0 0 0 0
4526 1 1 -52.980619540032556 -255.68250922422231 0 0 0 0
4527 1 1 -46.49996424893615 -254.40299242438658 0 0 0 0
4528 1 1 -40.276542524201446 -253.26984974790886 0 0 0 0
4529 1 1 -34.28458046438817 -252.63700283047206 0 0 0 0
4530 1 1 -28.58400449046707 -252.24299520437498 0 0 0 0
4531 1 1 -23.580637276465687 -249.66211145195118 0 0 0 0
4532 1 1 -17.87459180808633 -248.03177535057787 0 0 0 0
4533 1 1 -12.090373915187678 -247.40169298080886 0 0 0 0
4534 1 1 -6.562431245580992 -247.11892406404496 0 0 0 0
4535 1 1 -1.181187417679349 -244.84674621631996 0 0 0 0
4536 1 1 4.443279899909532 -244.17651903171992 0 0 0 0
4537 1 1 10.581917755262854 -243.69039082085507 0 0 0 0
4538 1 1 16.45220061452852 -243.5600449569499 0 0 0 0
4539 1 1 22.225857005085366 -242.0614397814221 0 0 0 0
4540 1 1 27.202298257328955 -240.6670893940246 0 0 0 0
4541 1 1 33.071520257275736 -238.83606451685756 0 0 0 0
4542 1 1 38.74791964892812 -238.3752626526734 0 0 0 0
4543 1 1 43.85405512329214 -235.8730966503332 0 0 0 0
4544 1 1 49.20673432134458 -235.1540119493936 0 0 0 0
4545 1 1 55.26425887334015 -233.7751556793427 0 0 0 0
4546 1 1 61.204199106922175 -233.4444716731197 0 0 0 0
4547 1 1 67.2131212996504 -232.73290136041493 0 0 0 0
4548 1 1 72.9795233751144 -231.65747359344687 0 0 0 0
4549 1 1 79.3560505890063 -230.0905741960795 0 0 0 0
4550 1 1 84.21054055782443 -229.82501892548513 0 0 0 0
4551 1 1 89.6788609177377 -229.62993662029228 0 0 0 0
4552 1 1 95.35941216797185 -227.8072664832861 0 0 0 0
4553 1 1 100.16815866999046 -226.4363134113201 0 0 0 0
4554 1 1 106.05124295463288 -224.85389884226535 0 0 0 0
4555 1 1 111.93061082125719 -224.47174772463484 0 0 0 0
4556 1 1 118.24165286757422 -223.13011966643765 0 0 0 0
4557 1 1 124.84720599620005 -221.5557194728112 0 0 0 0
4558 1 1 130.44139999458116 -221.18417020649568 0 0 0 0
4559 1 1 135.08601218700502 -220.9761275723927 0 0 0 0
4560 1 1 140.66991336250564 -220.29360842626178 0 0 0 0
4561 1 1 145.82619301987086 -218.05139461088558 0 0 0 0
4562 1 1 151.4571082913055 -216.0312898665569 0 0 0 0
4563 1 1 156.94494240266496 -215.74119698457287 0 0 0 0
4564 1 1 162.81624904589776 -215.29785475540885 0 0 0 0
4565 1 1 169.28344880723944 -213.7801348723538 0 0 0 0
4566 1 1 175.93592905534254 -212.52418997323667 0 0 0 0
4567 1 1 181.9930777778953 -211.67837545673007 0 0 0 0
4568 1 1 187.97453685464959 -210.48381851609741 0 0 0 0
4569 1 1 193.39323392880013 -209.93408778418956 0 0 0 0
4570 1 1 198.41978494129327 -207.43803680352326 0 0 0 0
4571 1 2 204.01882033070459 -207.07486750311944 0 0 0 0
4572 1 2 209.71964341348902 -206.00687116474 0 0 0 0
4666 1 2 -130.4042419094061 -264.61559602224645 0 0 0 0
4667 1 2 -124.70341882662161 -263.547599683867 0 0 0 0
4668 1 1 -118.45736227790738 -261.8084656521662 0 0 0 0
4669 1 1 -113.3452514471774 -261.37399730774615 0 0 0 0
4670 1 1 -108.26919776064672 -261.0773801426186 0 0 0 0
4671 1 1 -101.72091902832679 -259.39102257708424 0 0 0 0
4672 1 1 -95.50496928239166 -258.0578876020891 0 0 0 0
4673 1 1 -89.56804080086197 -257.7071644344383 0 0 0 0
4674 1 1 -83.62695514988978 -256.24993563856225 0 0 0 0
4675 1 1 -78.63190893844948 -254.9647511416196 0 0 0 0
4676 1 1 -73.07617433285803 -253.05821307199616 0 0 0 0
4677 1 1 -67.4060139946407 -252.72135649997637 0 0 0 0
4678 1 1 -61.942329308511454 -252.43153634579355 0 0 0 0
4679 1 1 -55.96553045471804 -250.7066227506174 0 0 0 0
4680 1 1 -50.619247228667476 -249.73956623978316 0 0 0 0
4681 1 1 -44.76552912930673 -248.61103645326438 0 0 0 0
4682 1 1 -38.811683789136445 -248.5220978716727 0 0 0 0
4683 1 1 -32.71608555454086 -247.3287824860036 0 0 0 0
4684 1 1 -27.279591465622328 -246.60569796357242 0 0 0 0
4685 1 1 -22.14551046047884 -244.06113740981246 0 0 0 0
4686 1 1 -16.441094443608737 -243.63571669952458 0 0 0 0
4687 1 1 -10.484725647730436 -242.48534857955156 0 0 0 0
4688 1 1 -4.883863094308822 -241.50065899235994 0 0 0 0
4689 1 1 0.12816062748625648 -238.9596647841769 0 0 0 0
4690 1 1 5.879239732665187 -238.7386029889693 0 0 0 0
4691 1 1 11.975706314015161 -238.33534982326518 0 0 0 0
4692 1 1 17.997311055481 -237.79373420488508 0 0 0 0
4693 1 1 23.618267083420243 -235.76484234266903 0 0 0 0
4694 1 1 28.887629551951896 -235.09763319637386 0 0 0 0
4695 1 1 34.95741897993767 -233.80551688177857 0 0 0 0
4696 1 1 40.383900250871484 -232.4946795530988 0 0 0 0
4697 1 1 45.38218132753241 -230.0756184665042 0 0 0 0
4698 1 1 50.86724612924749 -229.85791446333727 0 0 0 0
4699 1 1 56.733324766777365 -229.33907199404507 0 0 0 0
4700 1 1 63.001298961972424 -228.04618668111553 0 0 0 0
4701 1 1 69.56031113830412 -226.94670146279543 0 0 0 0
4702 1 1 75.61018956780941 -226.20587248704317 0 0 0 0
4703 1 1 81.79087925910483 -224.7388605283857 0 0 0 0
4704 1 1 87.17004109067352 -224.54655210881242 0 0 0 0
4705 1 1 91.67177102519346 -223.92909090225257 0 0 0 0
4706 1 1 96.22179863269223 -221.40493739667122 0 0 0 0
4707 1 1 101.63911356988055 -221.11118413945536 0 0 0 0
4708 1 1 107.5703546708813 -220.26327216025285 0 0 0 0
4709 1 1 113.74627560817197 -219.08374655688283 0 0 0 0
4710 1 1 120.41636880414354 -217.9106491646837 0 0 0 0
4711 1 1 126.79391244031791 -216.43260376981596 0 0 0 0
4712 1 1 132.70012719933152 -215.87001651020245 0 0 0 0
4713 1 1 138.22868248787503 -215.65496471292417 0 0 0 0
4714 1 1 143.42212558084384 -213.3685356007056 0 0 0 0
4715 1 1 148.74199953857593 -211.69172619258416 0 0 0 0
4716 1 1 154.61333967825146 -210.60410560115926 0 0 0 0
4717 1 1 159.52045007798316 -210.32590450168024 0 0 0 0
4718 1 1 164.96505398634176 -209.96288563151566 0 0 0 0
4719 1 1 171.55054292059606 -208.77409817049252 0 0 0 0
4720 1 1 177.86239480392928 -207.21325176240043 0 0 0 0
4721 1 1 183.64753826571402 -206.8482574183493 0 0 0 0
4722 1 1 189.40212301225299 -205.07708882060714 0 0 0 0
4723 1 1 194.22457696877905 -203.73341904769316 0 0 0 0
4724 1 1 200.0632037046286 -202.091404948681 0 0 0 0
4725 1 1 205.80544787743096 -201.70291963553535 0 0 0 0
4726 1 2 211.64514305766164 -200.53581571948084 0 0 0 0
4727 1 2 217.3459661404461 -199.46781938110138 0 0 0 0
4820 1 2 -134.17956534801795 -260.2125369153666 0 0 0 0
4821 1 1 -128.36082828079805 -258.4933495495419 0 0 0 0
4822 1 1 -122.61391597639614 -257.98484949654795 0 0 0 0
4823 1 1 -116.5917590020586 -256.5818968527556 0 0 0 0
4824 1 1 -110.80755827176202 -256.0283272240684 0 0 0 0
4825 1 1 -105.5678013819577 -255.22489913972908 0 0 0 0
4826 1 1 -100.08169845999457 -253.28982903322617 0 0 0 0
4827 1 1 -93.99032569068264 -252.68664759006043 0 0 0 0
4828 1 1 -87.99710858004751 -252.1682738546741 0 0 0 0
4829 1 1 -82.66361522765149 -250.00573385947806 0 0 0 0
4830 1 1 -77.38348465679339 -249.32553037710295 0 0 0 0
4831 1 1 -71.60702644534774 -248.6742717585853 0 0 0 0
4832 1 1 -65.65690740759007 -247.62282604743402 0 0 0 0