LAMMPS data file via write_data, version 29 Aug 2024, timestep = 250186, units = micro

9407 atoms
2 atom types
27870 bonds
1 bond types

-893.1999999999999 893.1999999999999 xlo xhi
-893.1999999999999 893.1999999999999 ylo yhi
-5 5 zlo zhi

Masses

1 31.06
2 31.06

Bond Coeffs # harmonic

1 1e-07 5.8

Atoms # bond

2995 1 2 8.038309059209569 -294.89331237707563 0 0 0 0
2996 1 2 13.739132141994032 -293.82531603869626 0 0 0 0
2997 1 2 19.4399552247785 -292.7573197003168 0 0 0 0
2998 1 2 25.140778307562957 -291.6893233619374 0 0 0 0
2999 1 2 30.84160139034742 -290.62132702355797 0 0 0 0
3000 1 2 36.54242447313188 -289.55333068517854 0 0 0 0
3001 1 2 42.24324755591635 -288.48533434679916 0 0 0 0
3002 1 2 47.94407063870081 -287.4173380084197 0 0 0 0
3003 1 2 53.64489372148527 -286.34934167004025 0 0 0 0
3004 1 2 59.345716804269735 -285.2813453316609 0 0 0 0
3005 1 2 65.0465398870542 -284.2133489932814 0 0 0 0
3006 1 2 70.74736296983865 -283.145352654902 0 0 0 0
3007 1 2 76.44818605262311 -282.0773563165226 0 0 0 0
3008 1 2 82.14900913540758 -281.0093599781431 0 0 0 0
3009 1 2 87.84983221819203 -279.9413636397637 0 0 0 0
3010 1 2 93.5506553009765 -278.8733673013843 0 0 0 0
3011 1 2 99.25147838376095 -277.8053709630048 0 0 0 0
3144 1 2 -18.540306894677446 -294.76223764081305 0 0 0 0
3145 1 2 -12.839483811892988 -293.6942413024337 0 0 0 0
3146 1 2 -7.138660729108524 -292.62624496405425 0 0 0 0
3147 1 2 -1.437837646324059 -291.5582486256748 0 0 0 0
3148 1 2 4.262985436460405 -290.4902522872954 0 0 0 0
3149 1 1 10.308034180764025 -289.20437517030985 0 0 0 0
3150 1 1 16.18196717634898 -288.8362608995238 0 0 0 0
3151 1 1 21.307124545976944 -286.67558180287733 0 0 0 0
3152 1 1 26.903888524838855 -286.18033707510574 0 0 0 0
3153 1 1 32.77813322380305 -285.0566917772638 0 0 0 0
3154 1 1 38.66129462536474 -284.1726285443846 0 0 0 0
3155 1 1 44.21641827605945 -283.46358843199533 0 0 0 0
3156 1 1 49.29876992610999 -281.25625146715765 0 0 0 0
3157 1 1 55.02935127863916 -280.52328130467174 0 0 0 0
3158 1 1 61.01446102766087 -279.3499153122957 0 0 0 0
3159 1 1 66.74621678518768 -278.37720197891014 0 0 0 0
3160 1 1 72.22920436692834 -277.57660742857905 0 0 0 0
3161 1 1 77.89857759809559 -277.1221827995075 0 0 0 0
3162 1 1 83.82804647589431 -275.5939626889041 0 0 0 0
3163 1 1 89.55543416353605 -275.15122254449216 0 0 0 0
3164 1 1 95.22461462019662 -273.078306858518 0 0 0 0
3165 1 2 101.17697784379625 -272.33431453484513 0 0 0 0
3166 1 2 106.87780092658072 -271.2663181964657 0 0 0 0
3167 1 2 112.57862400936519 -270.1983218580863 0 0 0 0
3168 1 2 118.27944709214964 -269.13032551970684 0 0 0 0
3169 1 2 123.9802701749341 -268.0623291813274 0 0 0 0
3296 1 2 -33.71727649885824 -292.4951712106922 0 0 0 0
3297 1 2 -28.016453416073787 -291.4271748723128 0 0 0 0
3298 1 2 -22.315630333289324 -290.35917853393335 0 0 0 0
3299 1 1 -16.600816709157886 -289.53327950206995 0 0 0 0
3300 1 1 -10.871743355756362 -288.8710924565885 0 0 0 0
3301 1 1 -4.93808343601394 -287.2460414885659 0 0 0 0
3302 1 1 0.1305192800227913 -285.024173135414 0 0 0 0
3303 1 1 5.849668982313865 -284.4993973231507 0 0 0 0
3304 1 1 11.886165074182335 -283.6787723398629 0 0 0 0
3305 1 1 17.630802803720595 -282.6055914771837 0 0 0 0
3306 1 1 23.445725260586155 -281.08336020737534 0 0 0 0
3307 1 1 28.709292517067308 -280.7867848631655 0 0 0 0
3308 1 1 34.36755538562246 -280.47344712137766 0 0 0 0
3309 1 1 40.20856352803802 -278.7540573950876 0 0 0 0
3310 1 1 45.0572591553635 -277.28955402278297 0 0 0 0
3311 1 1 50.78270786907844 -275.66601120891846 0 0 0 0
3312 1 1 56.565622010184576 -275.2626504699093 0 0 0 0
3313 1 1 62.84362030583468 -273.77502000050157 0 0 0 0
3314 1 1 69.35323764164927 -272.55362502700086 0 0 0 0
3315 1 1 74.80871584876216 -272.15044080014184 0 0 0 0
3316 1 1 79.82156909056994 -271.8515751767066 0 0 0 0
3317 1 1 85.9778747685614 -270.42290433362206 0 0 0 0
3318 1 1 91.37249492236724 -269.4768519220992 0 0 0 0
3319 1 1 96.36629837703808 -267.09077784113066 0 0 0 0
3320 1 1 101.75126511861139 -266.82024039221847 0 0 0 0
3321 1 1 107.51641999412692 -266.2920145783456 0 0 0 0
3322 1 1 113.76251893904244 -264.74712572603886 0 0 0 0
3323 1 1 120.25169368212585 -263.6320432118871 0 0 0 0
3324 1 2 125.9057698191067 -262.5912737360682 0 0 0 0
3325 1 2 131.60659290189116 -261.52327739768884 0 0 0 0
3326 1 2 137.3074159846756 -260.4552810593094 0 0 0 0
3447 1 2 -48.89424610303904 -290.2281047805713 0 0 0 0
3448 1 2 -43.193423020254585 -289.16010844219187 0 0 0 0
3449 1 2 -37.49259993747012 -288.0921121038125 0 0 0 0
3450 1 1 -32.03339821998386 -286.57532688268174 0 0 0 0
3451 1 1 -26.59836926526154 -286.1675659965882 0 0 0 0
3452 1 1 -20.879947166184362 -285.61637504964096 0 0 0 0
3453 1 1 -14.911247067469183 -284.4303526627783 0 0 0 0
3454 1 1 -9.193117623476285 -283.9335704518206 0 0 0 0
3455 1 1 -4.252440642890737 -281.13805326222274 0 0 0 0
3456 1 1 1.49117569759951 -280.05796555421824 0 0 0 0
3457 1 1 7.617845337883574 -278.9441580820564 0 0 0 0
3458 1 1 14.023379647124047 -277.90842964118497 0 0 0 0
3459 1 1 20.254025265185643 -276.7076137090445 0 0 0 0
3460 1 1 26.407438161781236 -275.62666244643646 0 0 0 0
3461 1 1 31.43161907962862 -275.44880583964704 0 0 0 0
3462 1 1 36.23853886649356 -274.96605351498937 0 0 0 0
3463 1 1 40.870944991123665 -272.3924612178745 0 0 0 0
3464 1 1 46.38962649374546 -271.9840861209696 0 0 0 0
3465 1 1 52.4235911182099 -270.5649068792894 0 0 0 0
3466 1 1 58.40150675067026 -269.94952405467626 0 0 0 0
3467 1 1 64.99379969202056 -268.70638598421993 0 0 0 0
3468 1 1 71.49368550767035 -267.2036502118226 0 0 0 0
3469 1 1 77.36525712654317 -266.805188436171 0 0 0 0
3470 1 1 82.91699480101039 -266.4775434509484 0 0 0 0
3471 1 1 88.92692683989024 -264.6632271713757 0 0 0 0
3472 1 1 93.80233651968639 -262.2063311272179 0 0 0 0
3473 1 1 99.25517604390407 -261.5649661856751 0 0 0 0
3474 1 1 103.82159777560274 -261.36861298165707 0 0 0 0
3475 1 1 109.38088070546894 -261.0470299855739 0 0 0 0
3476 1 1 115.97691216364802 -259.58282349914145 0 0 0 0
3477 1 1 122.38184727954715 -258.1477938769224 0 0 0 0
3478 1 1 128.22801160334927 -257.6930867831613 0 0 0 0
3479 1 1 134.09171871110672 -255.9490943516042 0 0 0 0
3480 1 2 139.2329156288482 -254.98422561405022 0 0 0 0
3481 1 2 144.93373871163269 -253.91622927567082 0 0 0 0
3482 1 2 150.63456179441712 -252.84823293729136 0 0 0 0
3599 1 2 -64.07121589135714 -287.96103736754986 0 0 0 0
3600 1 2 -58.370392808572674 -286.8930410291704 0 0 0 0
3601 1 2 -52.66956972578823 -285.82504469079095 0 0 0 0
3602 1 1 -47.64178013462288 -284.3482548161202 0 0 0 0
3603 1 1 -41.780004467116974 -283.6331428098824 0 0 0 0
3604 1 1 -35.57808587427795 -282.1964526247281 0 0 0 0
3605 1 1 -29.24796260656882 -281.0377526296906 0 0 0 0
3606 1 1 -24.480531893187873 -280.79032203984286 0 0 0 0
3607 1 1 -19.21855134735798 -280.69300420680815 0 0 0 0
3608 1 1 -13.47610792143188 -280.02600291328895 0 0 0 0
3609 1 1 -7.884151896274125 -278.26968027238297 0 0 0 0
3610 1 1 -2.7327042906773826 -275.59465707887836 0 0 0 0
3611 1 1 3.064460991432098 -275.18143729366795 0 0 0 0
3612 1 1 9.536262569866786 -273.6839169965021 0 0 0 0
3613 1 1 16.224499532668485 -272.34977688818543 0 0 0 0
3614 1 1 22.211574650228897 -271.8276533553251 0 0 0 0
3615 1 1 28.27674483823863 -270.5230644207653 0 0 0 0
3616 1 1 34.02898818946667 -270.01806781665664 0 0 0 0
3617 1 1 38.63920628925105 -267.3586480303 0 0 0 0
3618 1 1 43.697093271578865 -266.80580250501214 0 0 0 0
3619 1 1 48.34574546742151 -266.6021101903062 0 0 0 0
3620 1 1 54.22020373510388 -265.9375053090209 0 0 0 0
3621 1 1 60.56962528515918 -264.5223968968894 0 0 0 0
3622 1 1 67.04193411500464 -263.4673838969409 0 0 0 0
3623 1 1 73.10886341648934 -262.7509582496586 0 0 0 0
3624 1 1 79.13913541844526 -261.69609186087513 0 0 0 0
3625 1 1 84.84103679202137 -261.24613505792684 0 0 0 0
3626 1 1 89.7417612574336 -258.4065765265801 0 0 0 0
3627 1 1 95.3638382560179 -257.37131732335826 0 0 0 0
3628 1 1 101.28515001338424 -256.2517613082913 0 0 0 0
3629 1 1 106.96023286191897 -256.03920788993844 0 0 0 0
3630 1 1 112.5143604213043 -255.17405460990094 0 0 0 0
3631 1 1 118.47732654799819 -254.25249607063938 0 0 0 0
3632 1 1 124.68585799372025 -252.84292699345275 0 0 0 0
3633 1 1 130.15972249884905 -252.18693844768245 0 0 0 0
3634 1 1 135.06711366993528 -249.74012024671435 0 0 0 0
3635 1 1 140.53791897191664 -249.42437422595452 0 0 0 0
3636 1 1 146.3667506282298 -248.42586959868245 0 0 0 0
3637 1 2 152.56006125445242 -247.3771765091316 0 0 0 0
3638 1 2 158.2608843372369 -246.30918017075217 0 0 0 0
3639 1 2 163.96170742002136 -245.24118383237277 0 0 0 0
3751 1 2 -73.54736241275347 -284.62597459904947 0 0 0 0
3752 1 2 -67.84653932996902 -283.5579782606701 0 0 0 0
3753 1 1 -62.722219425351746 -281.47806799391725 0 0 0 0
3754 1 1 -57.74348248985285 -281.0086928138858 0 0 0 0
3755 1 1 -52.21614037442267 -280.5234167705896 0 0 0 0
3756 1 1 -46.02182845784347 -278.9562175068284 0 0 0 0
3757 1 1 -39.67985138068354 -278.09456006890565 0 0 0 0
3758 1 1 -33.27267300090516 -277.05513792784353 0 0 0 0
3759 1 1 -27.047432081171447 -275.6806109569192 0 0 0 0
3760 1 1 -21.560592651461384 -275.49040187474594 0 0 0 0
3761 1 1 -17.07557314185188 -275.33587600324745 0 0 0 0
3762 1 1 -11.781823530969483 -274.778005018448 0 0 0 0
3763 1 1 -7.018833216982292 -272.0798544247109 0 0 0 0
3764 1 1 -0.7448246028414832 -270.41265264219396 0 0 0 0
3765 1 1 5.142980654164827 -269.8124838056526 0 0 0 0
3766 1 1 11.873412855800849 -268.6202434114984 0 0 0 0
3767 1 1 18.272119840900395 -266.9737517699503 0 0 0 0
3768 1 1 23.984216007869033 -266.6799185560208 0 0 0 0
3769 1 1 29.70831739829526 -266.2327304198152 0 0 0 0
3770 1 1 35.00707361536333 -264.0190619770453 0 0 0 0
3771 1 1 40.38266339660162 -261.8539337638463 0 0 0 0
3772 1 1 46.08378141544785 -261.4118569167154 0 0 0 0
3773 1 1 51.58831382690761 -261.17480831819256 0 0 0 0
3774 1 1 57.490038823609495 -260.0176094668576 0 0 0 0
3775 1 1 63.62006526845481 -258.87525304024666 0 0 0 0
3776 1 1 69.27259378374443 -258.03697801055864 0 0 0 0
3777 1 1 74.81019080278479 -257.89845261959096 0 0 0 0
3778 1 1 80.5667307331282 -257.333574778971 0 0 0 0
3779 1 1 86.1885274559839 -255.58034470214233 0 0 0 0
3780 1 1 91.24106768485994 -252.98834490604204 0 0 0 0
3781 1 1 96.96953293709105 -252.5456806269202 0 0 0 0
3782 1 1 102.95904870625296 -251.68966163879205 0 0 0 0
3783 1 1 109.17883895783199 -250.5253896014418 0 0 0 0
3784 1 1 115.70516513945687 -249.5114811994053 0 0 0 0
3785 1 1 121.71103493399832 -248.6654574351585 0 0 0 0
3786 1 1 127.92861160945792 -247.32393254258534 0 0 0 0
3787 1 1 132.6902212593525 -244.6654091777047 0 0 0 0
3788 1 1 137.86385556957285 -244.08731614208838 0 0 0 0
3789 1 1 142.39153657262304 -243.94167313568974 0 0 0 0
3790 1 1 147.93383684613173 -243.7110422235596 0 0 0 0
3791 1 1 154.0402822159633 -242.00125901883837 0 0 0 0
3792 1 1 160.11462794282394 -241.1135023183489 0 0 0 0
3793 1 2 165.88720706419392 -239.77012838711357 0 0 0 0
3794 1 2 171.58803014697838 -238.70213204873414 0 0 0 0
3904 1 2 -83.02350893414982 -281.2909118305492 0 0 0 0
3905 1 2 -77.32268585136534 -280.22291549216976 0 0 0 0
3906 1 1 -70.71979358092109 -278.82596083568234 0 0 0 0
3907 1 1 -65.77450861185632 -276.48679658632926 0 0 0 0
3908 1 1 -60.22825536620446 -275.6595060243812 0 0 0 0
3909 1 1 -55.60642603067481 -275.4669792415305 0 0 0 0
3910 1 1 -50.279871147850635 -275.20685981423696 0 0 0 0
3911 1 1 -43.70936249857256 -273.8114958701776 0 0 0 0
3912 1 1 -37.2831217776024 -272.47111845610124 0 0 0 0
3913 1 1 -31.357026084618994 -271.99081838650784 0 0 0 0
3914 1 1 -25.391545193787998 -271.0355232129045 0 0 0 0
3915 1 1 -19.50774849642021 -270.12451945273534 0 0 0 0
3916 1 1 -14.075917940760128 -269.7647841468584 0 0 0 0
3917 1 1 -9.32577229533349 -267.20883323337614 0 0 0 0
3918 1 1 -3.8955591444026907 -266.4619886603283 0 0 0 0
3919 1 1 2.480405297571082 -264.96438605369906 0 0 0 0
3920 1 1 8.476868744086527 -264.11714067951135 0 0 0 0
3921 1 1 14.418232573380749 -263.1457432000981 0 0 0 0
3922 1 1 21.214480514344697 -261.6729076191437 0 0 0 0
3923 1 1 26.18748170141274 -261.3575121024319 0 0 0 0
3924 1 1 31.44080143594916 -260.7760026600106 0 0 0 0
3925 1 1 36.07706856028385 -258.0932672189042 0 0 0 0
3926 1 1 41.84886445803242 -257.52762207321206 0 0 0 0
3927 1 1 47.93715439760699 -256.127105947994 0 0 0 0
3928 1 1 53.87389124177049 -255.61302244228943 0 0 0 0
3929 1 1 60.297222276282554 -254.50358789757695 0 0 0 0
3930 1 1 66.79661022239533 -253.07041839264872 0 0 0 0
3931 1 1 72.47917478208687 -252.71752553951643 0 0 0 0
3932 1 1 77.04001561734174 -252.55586309488575 0 0 0 0
3933 1 1 82.24397185709321 -252.06817111275404 0 0 0 0
3934 1 1 86.85141935098122 -249.42994931872465 0 0 0 0
3935 1 1 92.65939728060818 -248.60824439745025 0 0 0 0
3936 1 1 98.6875557490255 -247.37680516145554 0 0 0 0
3937 1 1 104.66448376066207 -246.87174270683866 0 0 0 0
3938 1 1 111.31249278686535 -245.3863213749826 0 0 0 0
3939 1 1 117.80810190199354 -244.07880109798614 0 0 0 0
3940 1 1 123.62095941747886 -243.66451359405048 0 0 0 0
3941 1 1 129.0810264965739 -241.32171160841838 0 0 0 0
3942 1 1 134.434086350201 -239.15893601098588 0 0 0 0
3943 1 1 140.07301085547041 -238.69382341752296 0 0 0 0
3944 1 1 145.21226381113073 -238.60464035789178 0 0 0 0
3945 1 1 149.99702551357836 -238.30492623218524 0 0 0 0
3946 1 1 156.3770383515242 -236.51881789734833 0 0 0 0
3947 1 1 162.3706731712289 -235.1358641797182 0 0 0 0
3948 1 1 168.28050473934832 -234.60517891983585 0 0 0 0
3949 1 2 173.51352979115097 -233.23107660347495 0 0 0 0
3950 1 2 179.21435287393547 -232.16308026509554 0 0 0 0
4055 1 2 -98.2004787224679 -279.02384441752776 0 0 0 0
4056 1 2 -92.49965563968344 -277.9558480791483 0 0 0 0
4057 1 2 -86.798832556899 -276.8878517407689 0 0 0 0
4058 1 1 -80.64732116250842 -275.8701711671106 0 0 0 0
4059 1 1 -74.76823254554986 -275.340274581917 0 0 0 0
4060 1 1 -69.81259097522964 -272.5483859355312 0 0 0 0
4061 1 1 -64.26521453305972 -271.59144389604285 0 0 0 0
4062 1 1 -58.32447541373674 -270.3632579987684 0 0 0 0
4063 1 1 -52.608678096376714 -270.11923299415434 0 0 0 0
4064 1 1 -47.038495445129065 -269.483344992337 0 0 0 0
4065 1 1 -40.99847019496206 -268.35106712210523 0 0 0 0
4066 1 1 -34.707013140774556 -267.0532458020074 0 0 0 0
4067 1 1 -29.39537870428797 -266.6863175378926 0 0 0 0
4068 1 1 -23.79000350973019 -266.4561475866076 0 0 0 0
4069 1 1 -18.04235780669644 -264.733074425131 0 0 0 0
4070 1 1 -13.296788723910751 -263.33017000535114 0 0 0 0
4071 1 1 -7.462269780292575 -261.61432368847096 0 0 0 0
4072 1 1 -1.6320504017967101 -261.1989892099588 0 0 0 0
4073 1 1 4.775420960475552 -259.61447106178844 0 0 0 0
4074 1 1 11.492088288902893 -258.33609619862017 0 0 0 0
4075 1 1 17.448562543459307 -257.8835552580454 0 0 0 0
4076 1 1 23.58398977229101 -256.4418339935767 0 0 0 0
4077 1 1 29.31051138986561 -255.91548705506665 0 0 0 0
4078 1 1 33.901187410702285 -253.22205980835537 0 0 0 0
4079 1 1 38.58857341471323 -252.65744290997182 0 0 0 0
4080 1 1 43.778936153812005 -252.37578633402288 0 0 0 0
4081 1 1 50.12345773002735 -250.7465752238809 0 0 0 0
4082 1 1 56.26271713387073 -249.75801428723634 0 0 0 0
4083 1 1 62.480088656737664 -249.16029150782856 0 0 0 0
4084 1 1 68.55929848319734 -248.27833371293994 0 0 0 0
4085 1 1 74.51825066579215 -247.32028929228292 0 0 0 0
4086 1 1 79.96983460578984 -247.01279454448184 0 0 0 0
4087 1 1 84.55153296537365 -244.48178846563243 0 0 0 0
4088 1 1 89.18669634732802 -243.92819235087055 0 0 0 0
4089 1 1 94.44108228516029 -243.7182939731031 0 0 0 0
4090 1 1 100.71525338868815 -242.25956916562905 0 0 0 0
4091 1 1 106.78631457830386 -241.3883666018794 0 0 0 0
4092 1 1 113.26808400039806 -240.23695166975557 0 0 0 0
4093 1 1 119.53097953840009 -238.76288810526128 0 0 0 0
4094 1 1 125.15643503839041 -238.16647017058054 0 0 0 0
4095 1 1 130.09814532607353 -235.42385329773566 0 0 0 0
4096 1 1 135.80564976493795 -234.82341626346843 0 0 0 0
4097 1 1 141.7682172213361 -233.70043139689645 0 0 0 0
4098 1 1 147.49682163792409 -233.22395234637085 0 0 0 0
4099 1 1 152.7322776286923 -232.49910519762142 0 0 0 0
4100 1 1 158.0370331208682 -230.2956602962933 0 0 0 0
4101 1 1 163.99773895197012 -229.60603844363132 0 0 0 0
4102 1 1 169.9366742132504 -228.72553090994404 0 0 0 0
4103 1 1 175.55139621973433 -227.18896599028812 0 0 0 0
4104 1 2 181.13985233397074 -226.69202383693585 0 0 0 0
4105 1 2 186.84067541675518 -225.62402749855642 0 0 0 0
4106 1 2 192.54149849953967 -224.55603116017696 0 0 0 0
4209 1 2 -101.97580216107978 -274.620785310648 0 0 0 0
4210 1 1 -95.87603573380603 -273.2966173584647 0 0 0 0
4211 1 1 -90.2800718311374 -272.21103179770085 0 0 0 0
4212 1 1 -84.78366662330191 -271.965779126897 0 0 0 0
4213 1 1 -79.01782788893881 -271.53396559245397 0 0 0 0
4214 1 1 -73.30903119537592 -269.6998224201458 0 0 0 0
4215 1 1 -68.23668382634308 -266.94671669287453 0 0 0 0
4216 1 1 -62.63983386924449 -266.61223940368353 0 0 0 0
4217 1 1 -56.72331857502498 -265.94478734811366 0 0 0 0
4218 1 1 -50.529066214285564 -264.6773445308295 0 0 0 0
4219 1 1 -44.09270554311906 -263.72771965138054 0 0 0 0
4220 1 1 -37.971660673749 -262.8906863444024 0 0 0 0
4221 1 1 -31.720688435745956 -261.5949307171989 0 0 0 0
4222 1 1 -26.389981694358973 -261.3867684983958 0 0 0 0
4223 1 1 -21.8125875611547 -260.8209842691797 0 0 0 0
4224 1 1 -17.249004651919847 -258.2820310579256 0 0 0 0
4225 1 1 -11.798407490546651 -257.9521319696934 0 0 0 0
4226 1 1 -5.77428582517655 -256.7215353865978 0 0 0 0
4227 1 1 0.29723818033270266 -255.8079962432254 0 0 0 0
4228 1 1 6.95001495934523 -254.54318769925595 0 0 0 0
4229 1 1 13.39443327746129 -253.15062849442666 0 0 0 0
4230 1 1 19.30110325556563 -252.64074284425064 0 0 0 0
4231 1 1 25.024198698559157 -252.0863543564252 0 0 0 0
4232 1 1 30.162791225975038 -249.7503642621741 0 0 0 0
4233 1 1 35.74587015510023 -247.69520001794888 0 0 0 0
4234 1 1 41.41186608054869 -247.3305282236173 0 0 0 0
4235 1 1 46.63883966759367 -246.44797379091537 0 0 0 0
4236 1 1 52.07842920060524 -244.53481618540926 0 0 0 0
4237 1 1 58.17182268716044 -244.09979531222143 0 0 0 0
4238 1 1 64.24850842485408 -243.7187283101671 0 0 0 0
4239 1 1 70.09013107297537 -243.49950117054485 0 0 0 0
4240 1 1 75.88291458917448 -241.85557678297963 0 0 0 0
4241 1 1 80.73100079215146 -240.61003432954743 0 0 0 0
4242 1 1 86.49230114061908 -238.8895420270728 0 0 0 0
4243 1 1 92.098883503151 -238.63120129666692 0 0 0 0
4244 1 1 97.24582754295963 -238.2891978148586 0 0 0 0
4245 1 1 103.30804235777485 -236.5523434706947 0 0 0 0
4246 1 1 108.98141610907219 -235.4545620180539 0 0 0 0
4247 1 1 114.96141644384312 -234.58599221656138 0 0 0 0
4248 1 1 120.8056516605934 -233.19248088608046 0 0 0 0
4249 1 1 126.15413276920393 -231.96711180594795 0 0 0 0
4250 1 1 131.99783471662408 -230.0628256018165 0 0 0 0
4251 1 1 137.50541283038552 -229.7980774298953 0 0 0 0
4252 1 1 143.22202168639907 -229.40749315755681 0 0 0 0
4253 1 1 148.94700600398085 -227.67148290117308 0 0 0 0
4254 1 1 153.8288144280573 -225.9974132244525 0 0 0 0
4255 1 1 159.68934621481736 -224.70723189529784 0 0 0 0
4256 1 1 165.55341095799244 -224.2433968467327 0 0 0 0
4257 1 1 171.7841343278511 -222.83503272971078 0 0 0 0
4258 1 1 178.2953759551535 -221.48999738894562 0 0 0 0
4259 1 1 183.21477872451356 -221.12706629164856 0 0 0 0
4260 1 1 188.4522221684935 -220.89286270680145 0 0 0 0
4261 1 2 194.46699814371223 -219.08497571491776 0 0 0 0
4361 1 2 -111.45194868247613 -271.2857225421476 0 0 0 0
4362 1 2 -105.75112559969163 -270.21772620376817 0 0 0 0
4363 1 1 -99.62255113581385 -269.1257557708563 0 0 0 0
4364 1 1 -93.07932724911159 -267.4803078631766 0 0 0 0
4365 1 1 -87.07672615063112 -266.85803236838467 0 0 0 0
4366 1 1 -82.17062878886024 -266.68857430931286 0 0 0 0
4367 1 1 -77.20571637371849 -266.15406112948887 0 0 0 0
4368 1 1 -72.29607295297357 -263.4528995054958 0 0 0 0
4369 1 1 -66.02202555654989 -261.748477868949 0 0 0 0
4370 1 1 -60.64011401781583 -261.35196161825274 0 0 0 0
4371 1 1 -54.84370339433846 -260.9651927325864 0 0 0 0
4372 1 1 -48.28699309879276 -259.3199023532446 0 0 0 0
4373 1 1 -41.89723175706515 -258.1433536678225 0 0 0 0
4374 1 1 -35.99299704365058 -257.8096204139881 0 0 0 0
4375 1 1 -29.96707149668942 -256.6810881390785 0 0 0 0
4376 1 1 -24.16333686259546 -255.85649478003913 0 0 0 0
4377 1 1 -19.538475361470773 -253.2371164808238 0 0 0 0
4378 1 1 -14.254899173360524 -252.7422586800277 0 0 0 0
4379 1 1 -9.703607706553163 -252.53187012588756 0 0 0 0
4380 1 1 -3.9426726563732593 -251.8070821552164 0 0 0 0
4381 1 1 2.270158728538643 -250.14195808342197 0 0 0 0
4382 1 1 8.772053461622423 -249.15936348358542 0 0 0 0
4383 1 1 14.854323967789954 -248.6789002201331 0 0 0 0
4384 1 1 20.95539447127745 -247.3832040546945 0 0 0 0
4385 1 1 26.429795850288855 -246.72880174966792 0 0 0 0
4386 1 1 31.408725470895483 -244.04989642256467 0 0 0 0
4387 1 1 37.18371762464842 -243.3617059620517 0 0 0 0
4388 1 1 43.07959513253038 -241.81183591209748 0 0 0 0
4389 1 1 47.9562850612095 -239.59913320042278 0 0 0 0
4390 1 1 53.7098444113804 -238.85839805478906 0 0 0 0
4391 1 1 59.60352747204781 -238.66671595571253 0 0 0 0
4392 1 1 65.87947269033742 -238.17377662690328 0 0 0 0
4393 1 1 71.70863199088505 -237.75569611905388 0 0 0 0
4394 1 1 76.76709481004632 -235.5487563766766 0 0 0 0
4395 1 1 82.20577534006037 -235.2046996344303 0 0 0 0
4396 1 1 88.05263190603402 -234.40122838894382 0 0 0 0
4397 1 1 93.97718686472037 -233.29484254758208 0 0 0 0
4398 1 1 99.46877439088932 -232.76449537599657 0 0 0 0
4399 1 1 104.51735631480855 -230.29855340568352 0 0 0 0
4400 1 1 110.30930923614237 -229.84439460933703 0 0 0 0
4401 1 1 116.49944276970496 -228.56238152545674 0 0 0 0
4402 1 1 122.76102376629163 -227.08351809152768 0 0 0 0
4403 1 1 128.51702564559517 -226.2245470619424 0 0 0 0
4404 1 1 134.98627841963153 -224.75062222796205 0 0 0 0
4405 1 1 139.82695439712316 -224.49526709959966 0 0 0 0
4406 1 1 145.01417468038568 -223.98881395359012 0 0 0 0
4407 1 1 149.61551423065333 -221.3680152271265 0 0 0 0
4408 1 1 155.261170112203 -220.94094631625808 0 0 0 0
4409 1 1 161.4246220709577 -219.391138562691 0 0 0 0
4410 1 1 167.5356370583709 -218.72335805232956 0 0 0 0
4411 1 1 174.08571367251696 -217.58395263108173 0 0 0 0
4412 1 1 180.42176212789593 -216.0911990592343 0 0 0 0
4413 1 1 186.06238385786727 -215.82324374772261 0 0 0 0
4414 1 1 190.80123737570634 -215.49573164532006 0 0 0 0
4415 1 2 196.39249778788482 -213.61392026965856 0 0 0 0
4416 1 2 202.0933208706693 -212.54592393127913 0 0 0 0
4514 1 2 -120.92809538800975 -267.95065879074673 0 0 0 0
4515 1 2 -115.22727230522528 -266.88266245236736 0 0 0 0
4516 1 1 -110.2022982467951 -266.4219397988861 0 0 0 0
4517 1 1 -103.98676930860606 -264.794129368101 0 0 0 0
4518 1 1 -97.42866035928252 -263.64283270150884 0 0 0 0
4519 1 1 -91.23742938354096 -262.78866517340435 0 0 0 0
4520 1 1 -85.14116388451552 -261.64751861150194 0 0 0 0
4521 1 1 -79.42930157552226 -261.30995420405503 0 0 0 0
4522 1 1 -74.65298649846083 -258.71213109274237 0 0 0 0
4523 1 1 -69.21028709028577 -257.8418515659924 0 0 0 0
4524 1 1 -63.091694065228744 -256.4357960228869 0 0 0 0
4525 1 1 -57.38531034514584 -256.0876939771448 0 0 0 0
4526 1 1 -52.04448712078816 -254.89079444750877 0 0 0 0
4527 1 1 -46.33624057219156 -253.55187650875496 0 0 0 0
4528 1 1 -40.16325839466109 -252.77026595055852 0 0 0 0
4529 1 1 -34.31725118513033 -252.50337973452355 0 0 0 0
4530 1 1 -28.60599910756827 -252.18992447465905 0 0 0 0
4531 1 1 -23.585405568120745 -249.65932362684245 0 0 0 0
4532 1 1 -17.87233274700391 -248.02114224681594 0 0 0 0
4533 1 1 -12.087536264670794 -247.32752493321595 0 0 0 0
4534 1 1 -6.66883214120385 -247.01225596857137 0 0 0 0
4535 1 1 -1.5041083896789396 -244.85765165944792 0 0 0 0
4536 1 1 4.287162079726991 -244.2863777855464 0 0 0 0
4537 1 1 10.536150916817423 -243.6998048442122 0 0 0 0
4538 1 1 16.435408782759414 -243.53063128259143 0 0 0 0
4539 1 1 22.13635613654393 -241.82760273974867 0 0 0 0
4540 1 1 27.177367382269086 -240.62120857851647 0 0 0 0
4541 1 1 33.069732731563384 -238.80548853194588 0 0 0 0
4542 1 1 38.74312891964696 -238.3412495754252 0 0 0 0
4543 1 1 43.65638871218436 -235.62251335495085 0 0 0 0
4544 1 1 49.27264656808082 -234.78646107778934 0 0 0 0
4545 1 1 55.37452375002129 -233.52540858744817 0 0 0 0
4546 1 1 61.41753446576661 -233.1805663240025 0 0 0 0
4547 1 1 67.9466648820364 -232.36721906148387 0 0 0 0
4548 1 1 74.1202528645959 -230.62254532144587 0 0 0 0
4549 1 1 79.74016586894943 -230.00893302270265 0 0 0 0
4550 1 1 84.28438227011065 -229.84303896883384 0 0 0 0
4551 1 1 89.68699103255956 -229.6394390092043 0 0 0 0
4552 1 1 95.37675209913037 -227.85752358513832 0 0 0 0
4553 1 1 100.17677449282392 -226.5040798502373 0 0 0 0
4554 1 1 106.05224870694947 -224.87779201322257 0 0 0 0
4555 1 1 111.94190228255746 -224.46124968072633 0 0 0 0
4556 1 1 118.37946192811968 -223.02621915917723 0 0 0 0
4557 1 1 125.08013759936806 -221.4603775486808 0 0 0 0
4558 1 1 130.9883526387553 -221.02571740048586 0 0 0 0
4559 1 1 137.05636574241242 -219.61935938800406 0 0 0 0
4560 1 1 142.80954062475115 -219.0726326296529 0 0 0 0
4561 1 1 147.40171157557268 -216.40064241608974 0 0 0 0
4562 1 1 152.18951123511863 -215.8554329742795 0 0 0 0
4563 1 1 157.22681714058623 -215.6232370012306 0 0 0 0
4564 1 1 163.64100174474837 -214.1700192727779 0 0 0 0
4565 1 1 169.85976107965183 -212.96889469500354 0 0 0 0
4566 1 1 175.97869603647155 -212.30397921131757 0 0 0 0
4567 1 1 181.99630603244574 -211.5388943030722 0 0 0 0
4568 1 1 187.95634517004035 -210.44748783494515 0 0 0 0
4569 1 1 193.3520143927231 -209.90084582781003 0 0 0 0
4570 1 1 198.41487992407528 -207.43858416178827 0 0 0 0
4571 1 2 204.01882033070459 -207.07486750311944 0 0 0 0
4572 1 2 209.71964341348902 -206.00687116474 0 0 0 0
4666 1 2 -130.4042419094061 -264.61559602224645 0 0 0 0
4667 1 2 -124.70341882662161 -263.547599683867 0 0 0 0
4668 1 1 -118.45969735104121 -261.8107259201799 0 0 0 0
4669 1 1 -113.3550379668175 -261.3773047026247 0 0 0 0
4670 1 1 -108.28311670255056 -261.0967789960025 0 0 0 0
4671 1 1 -101.72479746865287 -259.4494298476269 0 0 0 0
4672 1 1 -95.51476638024491 -258.1131614599852 0 0 0 0
4673 1 1 -89.60558912324304 -257.7931528066456 0 0 0 0
4674 1 1 -83.72313341942527 -257.24687685238615 0 0 0 0
4675 1 1 -78.05073968863525 -255.57004828660985 0 0 0 0
4676 1 1 -72.97605955364756 -253.0738093686009 0 0 0 0
4677 1 1 -67.30050290077756 -252.6611775990473 0 0 0 0
4678 1 1 -61.46093786549982 -251.9706230265269 0 0 0 0
4679 1 1 -55.63781657046598 -250.44104993303085 0 0 0 0
4680 1 1 -50.59332799977378 -248.33227507451068 0 0 0 0
4681 1 1 -44.81645463578557 -247.8106658506698 0 0 0 0
4682 1 1 -38.821475807405896 -247.5114441484153 0 0 0 0
4683 1 1 -32.79423564915905 -247.03870324463796 0 0 0 0
4684 1 1 -27.31828884099259 -246.52902526767056 0 0 0 0
4685 1 1 -22.136515052291927 -244.05147081521832 0 0 0 0
4686 1 1 -16.414448819542006 -243.56545202103396 0 0 0 0
4687 1 1 -10.545419481491264 -241.92160721563525 0 0 0 0
4688 1 1 -5.56610766128734 -240.832232771684 0 0 0 0
4689 1 1 0.06115261607641732 -238.96856799793247 0 0 0 0
4690 1 1 5.855297905681923 -238.74278929725236 0 0 0 0
4691 1 1 11.962398708456757 -238.28624821457745 0 0 0 0
4692 1 1 17.951280017335428 -237.67204751360978 0 0 0 0
4693 1 1 23.618755200539173 -235.69198943786438 0 0 0 0
4694 1 1 28.890626356373243 -235.0874434729073 0 0 0 0
4695 1 1 34.96397535696326 -233.7717819406481 0 0 0 0
4696 1 1 40.3286623216697 -232.3970732174327 0 0 0 0
4697 1 1 45.397856478553614 -229.9944751007613 0 0 0 0
4698 1 1 51.00646753963991 -229.72988650869416 0 0 0 0
4699 1 1 57.31738769493085 -228.55957244438744 0 0 0 0
4700 1 1 63.69809554117566 -227.514970892829 0 0 0 0
4701 1 1 69.94628577460306 -226.6299027965489 0 0 0 0
4702 1 1 75.99512207347045 -225.52777482684556 0 0 0 0
4703 1 1 81.89120129825461 -224.68630018653522 0 0 0 0
4704 1 1 87.20823138685412 -224.54860386756457 0 0 0 0
4705 1 1 91.69043077562397 -223.94130027181936 0 0 0 0
4706 1 1 96.23461220103705 -221.42344861423314 0 0 0 0
4707 1 1 101.63992089409832 -221.12210085136266 0 0 0 0
4708 1 1 107.57015389585862 -220.27346617042872 0 0 0 0
4709 1 1 113.76400343567065 -219.08325637167968 0 0 0 0
4710 1 1 120.47938697958087 -217.88551048589346 0 0 0 0
4711 1 1 126.86027626305022 -216.41660764183845 0 0 0 0
4712 1 1 132.75874580270482 -215.85353065913236 0 0 0 0
4713 1 1 138.49118567561302 -215.3579089038366 0 0 0 0
4714 1 1 143.6261473367495 -212.92907523306454 0 0 0 0
4715 1 1 149.19623200986487 -210.9201342929128 0 0 0 0
4716 1 1 154.86227785624087 -210.49778712558472 0 0 0 0
4717 1 1 160.05823904341173 -210.04101915937085 0 0 0 0
4718 1 1 165.7372494385056 -208.13643254351186 0 0 0 0
4719 1 1 171.65219480221964 -207.36696078791655 0 0 0 0
4720 1 1 177.70647223071919 -206.9327918493223 0 0 0 0
4721 1 1 183.51982293652128 -206.73102281438568 0 0 0 0
4722 1 1 189.24593810376786 -204.93800203662184 0 0 0 0
4723 1 1 194.19617847497548 -203.7403079332432 0 0 0 0
4724 1 1 200.0556059061927 -202.09504588976287 0 0 0 0
4725 1 1 205.8033483628167 -201.70451829862225 0 0 0 0
4726 1 2 211.64514305766164 -200.53581571948084 0 0 0 0
4727 1 2 217.3459661404461 -199.46781938110138 0 0 0 0
4820 1 2 -134.17956534801795 -260.2125369153666 0 0 0 0
4821 1 1 -128.3620060816093 -258.4953508220434 0 0 0 0
4822 1 1 -122.61587363724834 -257.98960898007255 0 0 0 0
4823 1 1 -116.59539821887579 -256.5917121816702 0 0 0 0
4824 1 1 -110.81013050526587 -256.04282090041806 0 0 0 0
4825 1 1 -105.56662298673797 -255.32460096560328 0 0 0 0
4826 1 1 -100.05473451237452 -253.37320397311552 0 0 0 0
4827 1 1 -93.98702124308744 -252.79620285256843 0 0 0 0
4828 1 1 -87.93974664639873 -252.45968309883472 0 0 0 0
4829 1 1 -82.27093876718251 -252.09161113887393 0 0 0 0
4830 1 1 -77.38603229733646 -249.50112125121873 0 0 0 0
4831 1 1 -71.62152958922253 -248.65243341296144 0 0 0 0
4832 1 1 -65.64905425402894 -247.59296398387642 0 0 0 0