LAMMPS data file via write_data, version 29 Aug 2024, timestep = 250227, units = micro

9407 atoms
2 atom types
27870 bonds
1 bond types

-893.1999999999999 893.1999999999999 xlo xhi
-893.1999999999999 893.1999999999999 ylo yhi
-5 5 zlo zhi

Masses

1 31.06
2 31.06

Bond Coeffs # harmonic

1 1e-07 5.8

Atoms # bond

2995 1 2 -19.263370734108722 -294.3732369717315 0 0 0 0
2996 1 2 -13.488218186937784 -293.83694129124825 0 0 0 0
2997 1 2 -7.71306563976684 -293.300645610765 0 0 0 0
2998 1 2 -1.937913092595902 -292.76434993028175 0 0 0 0
2999 1 2 3.8372394545750392 -292.2280542497985 0 0 0 0
3000 1 2 9.612392001745981 -291.6917585693152 0 0 0 0
3001 1 2 15.387544548916921 -291.15546288883195 0 0 0 0
3002 1 2 21.16269709608786 -290.6191672083487 0 0 0 0
3003 1 2 26.9378496432588 -290.08287152786545 0 0 0 0
3004 1 2 32.71300219042974 -289.5465758473822 0 0 0 0
3005 1 2 38.48815473760068 -289.01028016689895 0 0 0 0
3006 1 2 44.26330728477162 -288.4739844864157 0 0 0 0
3007 1 2 50.03845983194256 -287.93768880593245 0 0 0 0
3008 1 2 55.8136123791135 -287.40139312544915 0 0 0 0
3009 1 2 61.58876492628444 -286.8650974449659 0 0 0 0
3010 1 2 67.36391747345539 -286.32880176448265 0 0 0 0
3011 1 2 73.13907002062632 -285.7925060839994 0 0 0 0
3144 1 2 -45.716002940462786 -291.7851380620946 0 0 0 0
3145 1 2 -39.940850393291846 -291.2488423816113 0 0 0 0
3146 1 2 -34.1656978461209 -290.7125467011281 0 0 0 0
3147 1 2 -28.390545298949963 -290.1762510206448 0 0 0 0
3148 1 2 -22.61539275177902 -289.6399553401616 0 0 0 0
3149 1 1 -16.68385801708023 -289.37286050591956 0 0 0 0
3150 1 1 -10.880052378427889 -288.85953342333937 0 0 0 0
3151 1 1 -4.868980284665141 -287.856617354498 0 0 0 0
3152 1 1 0.9416474352012035 -287.2163844975633 0 0 0 0
3153 1 1 6.470565792948669 -286.51262817525236 0 0 0 0
3154 1 1 12.052309324930109 -286.28902764715576 0 0 0 0
3155 1 1 17.768755433862108 -285.9332092237692 0 0 0 0
3156 1 1 23.70892094437717 -284.8742265120567 0 0 0 0
3157 1 1 29.488493687215726 -284.4206082000985 0 0 0 0
3158 1 1 35.1330050513969 -284.0172103400209 0 0 0 0
3159 1 1 41.069003939815026 -283.43872832648026 0 0 0 0
3160 1 1 46.99981123585084 -283.2027404693188 0 0 0 0
3161 1 1 52.501799357196205 -281.72376016297335 0 0 0 0
3162 1 1 58.12535792380378 -281.2130546509497 0 0 0 0
3163 1 1 63.716122931961905 -281.0500486570799 0 0 0 0
3164 1 1 69.44771237101322 -280.96305217132846 0 0 0 0
3165 1 2 75.56220055012696 -280.5229287719462 0 0 0 0
3166 1 2 81.3373530972979 -279.9866330914629 0 0 0 0
3167 1 2 87.11250564446885 -279.45033741097967 0 0 0 0
3168 1 2 92.88765819163979 -278.9140417304964 0 0 0 0
3169 1 2 98.66281073881073 -278.3777460500132 0 0 0 0
3296 1 2 -60.61832996001019 -288.12444878720714 0 0 0 0
3297 1 2 -54.84317741283925 -287.5881531067239 0 0 0 0
3298 1 2 -49.06802486566831 -287.05185742624064 0 0 0 0
3299 1 1 -43.34972362495016 -286.56645336104276 0 0 0 0
3300 1 1 -37.44789874329904 -286.0378907384943 0 0 0 0
3301 1 1 -31.961070879901744 -285.676058820193 0 0 0 0
3302 1 1 -26.24951679180406 -285.5116751070245 0 0 0 0
3303 1 1 -20.192307227756263 -284.52110553120883 0 0 0 0
3304 1 1 -14.567007901146704 -284.1173128840742 0 0 0 0
3305 1 1 -8.743860235277204 -283.73070107530174 0 0 0 0
3306 1 1 -2.4832729354573138 -282.6115017680496 0 0 0 0
3307 1 1 3.821526696837029 -281.49035322998077 0 0 0 0
3308 1 1 9.490986015950977 -281.0355704379921 0 0 0 0
3309 1 1 14.317525781525658 -280.8694130620638 0 0 0 0
3310 1 1 19.62060008943439 -280.7249044632934 0 0 0 0
3311 1 1 25.436559294528255 -280.0412085116948 0 0 0 0
3312 1 1 31.456547022916595 -278.99423305731193 0 0 0 0
3313 1 1 37.439475254848446 -278.4738650403029 0 0 0 0
3314 1 1 43.32851821581644 -277.89135932287434 0 0 0 0
3315 1 1 48.821731610610804 -277.35914557383427 0 0 0 0
3316 1 1 54.71888539791072 -276.084525446404 0 0 0 0
3317 1 1 60.17749952601426 -275.6639816052351 0 0 0 0
3318 1 1 65.8469851857039 -275.74671711301045 0 0 0 0
3319 1 1 71.99172684764447 -276.1811414697443 0 0 0 0
3320 1 1 78.27463566003996 -275.56171318868184 0 0 0 0
3321 1 1 83.92520873736886 -275.2264819098889 0 0 0 0
3322 1 1 89.5680592832657 -275.079657980668 0 0 0 0
3323 1 1 95.35138927303194 -274.3102589082061 0 0 0 0
3324 1 2 101.08594136077615 -273.10816973367594 0 0 0 0
3325 1 2 106.8610939079471 -272.5718740531927 0 0 0 0
3326 1 2 112.63624645511803 -272.03557837270944 0 0 0 0
3447 1 2 -75.5206569795576 -284.46375951231965 0 0 0 0
3448 1 2 -69.74550443238667 -283.9274638318364 0 0 0 0
3449 1 2 -63.97035188521573 -283.39116815135316 0 0 0 0
3450 1 1 -58.28052334535069 -281.8962618378742 0 0 0 0
3451 1 1 -52.566813968421144 -281.3651253501906 0 0 0 0
3452 1 1 -46.93744773378292 -281.2268130368059 0 0 0 0
3453 1 1 -40.9236555346554 -281.18362302000844 0 0 0 0
3454 1 1 -34.66017643140201 -280.86357255097647 0 0 0 0
3455 1 1 -28.813470410930105 -280.71028716282024 0 0 0 0
3456 1 1 -23.177138287586363 -280.2873180541269 0 0 0 0
3457 1 1 -17.132923434693996 -279.14946106873117 0 0 0 0
3458 1 1 -11.633825537312783 -278.74708484606373 0 0 0 0
3459 1 1 -6.065073194761479 -278.1018477336502 0 0 0 0
3460 1 1 -0.08450796582615014 -277.42599043961354 0 0 0 0
3461 1 1 5.8913020676685335 -276.4315044210951 0 0 0 0
3462 1 1 11.754625473214155 -275.6781395198532 0 0 0 0
3463 1 1 17.106034637682157 -275.5068868843019 0 0 0 0
3464 1 1 21.844766024928063 -275.3322651729399 0 0 0 0
3465 1 1 27.419822710915437 -274.94351481194246 0 0 0 0
3466 1 1 33.78023613984683 -273.7436438048733 0 0 0 0
3467 1 1 40.07169701660721 -272.7110677304867 0 0 0 0
3468 1 1 45.94965953914554 -272.22983057506076 0 0 0 0
3469 1 1 51.6526404881317 -271.73880855172916 0 0 0 0
3470 1 1 57.773782596880196 -270.56340401562045 0 0 0 0
3471 1 1 63.605746836752076 -270.7043800425518 0 0 0 0
3472 1 1 69.71186998500026 -271.6496184694248 0 0 0 0
3473 1 1 75.55242076364237 -271.4291195674898 0 0 0 0
3474 1 1 81.58509221192081 -270.40435899674895 0 0 0 0
3475 1 1 87.02660352346639 -270.1034011776644 0 0 0 0
3476 1 1 91.95163035186059 -269.7885822452811 0 0 0 0
3477 1 1 97.63512286912265 -269.2005779473958 0 0 0 0
3478 1 1 103.75497048978045 -268.1937360165602 0 0 0 0
3479 1 1 109.8557227363403 -267.2970470387606 0 0 0 0
3480 1 2 115.05937707708344 -266.76600205637214 0 0 0 0
3481 1 2 120.83452962425439 -266.2297063758889 0 0 0 0
3482 1 2 126.60968217142532 -265.69341069540565 0 0 0 0
3599 1 2 -90.42298409156979 -280.8030692417162 0 0 0 0
3600 1 2 -84.64783154439885 -280.2667735612329 0 0 0 0
3601 1 2 -78.87267899722791 -279.7304778807497 0 0 0 0
3602 1 1 -73.29664680600663 -278.7914327145941 0 0 0 0
3603 1 1 -67.75716031154984 -278.08357815737 0 0 0 0
3604 1 1 -62.30094266315033 -277.6213611635809 0 0 0 0
3605 1 1 -56.54650273979567 -276.5227396326842 0 0 0 0
3606 1 1 -50.686243312529726 -275.7974358475861 0 0 0 0
3607 1 1 -44.9299271438042 -275.81529776841734 0 0 0 0
3608 1 1 -38.93885278517939 -276.32239991428224 0 0 0 0
3609 1 1 -32.722368762147674 -276.01515320564073 0 0 0 0
3610 1 1 -26.79860925245376 -275.514229946724 0 0 0 0
3611 1 1 -21.0698002709651 -275.1728628025183 0 0 0 0
3612 1 1 -15.047240158088961 -273.9656653327968 0 0 0 0
3613 1 1 -9.097187118750021 -273.3030034647713 0 0 0 0
3614 1 1 -3.3058802882595817 -272.53903124170296 0 0 0 0
3615 1 1 2.0244743857590883 -272.05900186553475 0 0 0 0
3616 1 1 7.637368218172389 -271.79478128716636 0 0 0 0
3617 1 1 13.512693257139812 -270.7864501176437 0 0 0 0
3618 1 1 19.30465298394953 -270.152710951057 0 0 0 0
3619 1 1 24.905427054393424 -269.89754273248684 0 0 0 0
3620 1 1 30.555511150111354 -269.18379291262823 0 0 0 0
3621 1 1 36.52061397003935 -268.3679961857044 0 0 0 0
3622 1 1 42.52879808538818 -267.18229379630463 0 0 0 0
3623 1 1 48.07610232184516 -266.8032264095444 0 0 0 0
3624 1 1 53.74546277997339 -266.6021277119619 0 0 0 0
3625 1 1 59.956192497189754 -265.8061266816015 0 0 0 0
3626 1 1 66.43623568332889 -266.4214413476761 0 0 0 0
3627 1 1 72.02830342411514 -266.63423605784743 0 0 0 0
3628 1 1 77.6140717229191 -266.5061952955055 0 0 0 0
3629 1 1 83.46028331081219 -265.63461091429593 0 0 0 0
3630 1 1 89.30217837423885 -264.7617031915241 0 0 0 0
3631 1 1 94.9379659622123 -264.3176568620368 0 0 0 0
3632 1 1 100.44179080515654 -263.58308993846936 0 0 0 0
3633 1 1 106.10955254783171 -263.2342932863691 0 0 0 0
3634 1 1 111.88904634517718 -262.4627230399846 0 0 0 0
3635 1 1 117.80457407855128 -261.6448856262362 0 0 0 0
3636 1 1 123.52108675178654 -261.2622178494228 0 0 0 0
3637 1 2 129.03281270092597 -260.4238333833524 0 0 0 0
3638 1 2 134.8079652480969 -259.88753770286917 0 0 0 0
3639 1 2 140.58311779526784 -259.35124202238586 0 0 0 0
3751 1 2 -99.55015856394625 -276.60608428634544 0 0 0 0
3752 1 2 -93.77500601677532 -276.0697886058622 0 0 0 0
3753 1 1 -88.940884436517 -275.42519341792246 0 0 0 0
3754 1 1 -83.26178041901821 -275.0867381175152 0 0 0 0
3755 1 1 -77.14020189494003 -273.9874304928159 0 0 0 0
3756 1 1 -70.90894624100522 -272.84898461360274 0 0 0 0
3757 1 1 -65.36240093168259 -272.3344313624461 0 0 0 0
3758 1 1 -60.406644135144404 -272.046929511024 0 0 0 0
3759 1 1 -54.82270774940793 -271.71496127181763 0 0 0 0
3760 1 1 -48.744572666825405 -270.6879994764864 0 0 0 0
3761 1 1 -42.7663634760578 -270.85571721474685 0 0 0 0
3762 1 1 -36.770565623218886 -271.6312678099849 0 0 0 0
3763 1 1 -30.872795772296655 -271.4700202493966 0 0 0 0
3764 1 1 -24.78341974333711 -270.3258595711173 0 0 0 0
3765 1 1 -19.000460447148836 -269.8286735800833 0 0 0 0
3766 1 1 -12.743763376873282 -268.93764572558433 0 0 0 0
3767 1 1 -6.560034335890043 -267.9530375429311 0 0 0 0
3768 1 1 -0.4355995740252653 -267.02195591570285 0 0 0 0
3769 1 1 4.8858471134476344 -266.76856018401753 0 0 0 0
3770 1 1 9.661948830736462 -266.57239672515897 0 0 0 0
3771 1 1 15.286346449124698 -266.17104644377156 0 0 0 0
3772 1 1 21.41228779067088 -264.95345778156405 0 0 0 0
3773 1 1 27.497906333913626 -264.2589405748654 0 0 0 0
3774 1 1 33.61049691499668 -263.5751000681423 0 0 0 0
3775 1 1 39.534770803021736 -262.8079693708365 0 0 0 0
3776 1 1 45.64778012380072 -261.7039556370932 0 0 0 0
3777 1 1 50.90996623613847 -261.48100002006305 0 0 0 0
3778 1 1 56.231102828805106 -261.5002633141968 0 0 0 0
3779 1 1 63.524695437804645 -261.80379751933907 0 0 0 0
3780 1 1 69.72045823115847 -261.44683980415624 0 0 0 0
3781 1 1 74.87503545838402 -261.27961363530017 0 0 0 0
3782 1 1 79.69229376378466 -261.138940484551 0 0 0 0
3783 1 1 85.3349094631942 -260.74969590970437 0 0 0 0
3784 1 1 91.49590578116343 -259.611116801537 0 0 0 0
3785 1 1 97.73367585682958 -258.71837656375453 0 0 0 0
3786 1 1 103.51071569776644 -258.209898450259 0 0 0 0
3787 1 1 108.3827604755013 -257.92728338729256 0 0 0 0
3788 1 1 113.72131206917199 -257.772461184871 0 0 0 0
3789 1 1 119.53798310511709 -257.02185410971305 0 0 0 0
3790 1 1 125.45856168535616 -255.98187618127156 0 0 0 0
3791 1 1 131.41446505077002 -255.37698562326284 0 0 0 0
3792 1 1 137.27414899979365 -254.61659853414568 0 0 0 0
3793 1 2 143.00624841723325 -254.08166570604865 0 0 0 0
3794 1 2 148.78140096440418 -253.54537002556538 0 0 0 0
3904 1 2 -108.67733303632272 -272.4090993309747 0 0 0 0
3905 1 2 -102.90218048915177 -271.87280365049145 0 0 0 0
3906 1 1 -97.18330654103904 -270.99772035659123 0 0 0 0
3907 1 1 -91.52661373742377 -270.2956082081856 0 0 0 0
3908 1 1 -86.29245109089473 -269.94777703583134 0 0 0 0
3909 1 1 -80.82825898891791 -269.442939322015 0 0 0 0
3910 1 1 -74.70167742925887 -268.6102915958386 0 0 0 0
3911 1 1 -68.59803133551821 -267.22184168963145 0 0 0 0
3912 1 1 -62.877589463849404 -266.8064223323061 0 0 0 0
3913 1 1 -57.42979685733308 -266.69718776909315 0 0 0 0
3914 1 1 -51.942543717606334 -266.52835663828495 0 0 0 0
3915 1 1 -45.131610496823676 -266.2585112797602 0 0 0 0
3916 1 1 -38.999157122775514 -266.5912194818407 0 0 0 0
3917 1 1 -33.40907653298116 -266.5765786263734 0 0 0 0
3918 1 1 -27.88660844830503 -266.08906559432063 0 0 0 0
3919 1 1 -21.787204727861926 -264.9566439942425 0 0 0 0
3920 1 1 -16.118686909414773 -264.2272425452299 0 0 0 0
3921 1 1 -10.306500105277104 -263.51936929963443 0 0 0 0
3922 1 1 -4.463474191067585 -263.0858355127706 0 0 0 0
3923 1 1 1.4928553789552208 -261.95417764480504 0 0 0 0
3924 1 1 7.247244414707738 -261.4547559598596 0 0 0 0
3925 1 1 12.65196349734534 -261.2560951140188 0 0 0 0
3926 1 1 18.081135483025673 -260.6643037205085 0 0 0 0
3927 1 1 24.24755078056363 -259.6721696502857 0 0 0 0
3928 1 1 30.25162992931586 -258.5716532180683 0 0 0 0
3929 1 1 35.95818025852611 -258.11448265650137 0 0 0 0
3930 1 1 41.677597892918186 -257.7701643775636 0 0 0 0
3931 1 1 47.66805200086867 -256.61852214123735 0 0 0 0
3932 1 1 53.660576072294084 -256.39172035966266 0 0 0 0
3933 1 1 59.82209733529393 -257.6645472726688 0 0 0 0
3934 1 1 65.7591089645509 -257.43958588349005 0 0 0 0
3935 1 1 71.66327078504355 -256.067442493124 0 0 0 0
3936 1 1 77.09927499830692 -255.6830087934306 0 0 0 0
3937 1 1 82.34166931418389 -255.5617269947124 0 0 0 0
3938 1 1 87.8340291085871 -255.14753955361945 0 0 0 0
3939 1 1 93.8729487337803 -254.50927528311928 0 0 0 0
3940 1 1 99.88227700909316 -253.6795633221817 0 0 0 0
3941 1 1 105.80372042794727 -252.87902544937032 0 0 0 0
3942 1 1 111.22890206721327 -252.6770512297729 0 0 0 0
3943 1 1 115.9728314290285 -252.492811619419 0 0 0 0
3944 1 1 121.4736234108974 -252.09830421710805 0 0 0 0
3945 1 1 127.77570870109136 -250.79816869023918 0 0 0 0
3946 1 1 134.0251006937254 -249.81958464124443 0 0 0 0
3947 1 1 139.9597884276381 -249.3284099056788 0 0 0 0
3948 1 1 145.6188414722112 -248.93647328376295 0 0 0 0
3949 1 2 151.2045315863696 -248.27579370922814 0 0 0 0
3950 1 2 156.97968413354056 -247.7394980287449 0 0 0 0
4055 1 2 -123.57966014833491 -268.7484090603713 0 0 0 0
4056 1 2 -117.80450760116396 -268.212113379888 0 0 0 0
4057 1 2 -112.02935505399303 -267.6758176994048 0 0 0 0
4058 1 1 -106.68448990540327 -266.87820336299166 0 0 0 0
4059 1 1 -101.27248810762363 -266.671600964361 0 0 0 0
4060 1 1 -95.53828195617928 -266.1632873699164 0 0 0 0
4061 1 1 -89.52012932648907 -264.9171309678792 0 0 0 0
4062 1 1 -83.60875901681253 -264.36623607576485 0 0 0 0
4063 1 1 -77.96078365811456 -263.7156582587095 0 0 0 0
4064 1 1 -72.40627259142406 -263.14142606660823 0 0 0 0
4065 1 1 -66.34011931158071 -261.99941526384 0 0 0 0
4066 1 1 -60.72497792911963 -261.4968632356496 0 0 0 0
4067 1 1 -55.06315767259004 -261.5199388051023 0 0 0 0
4068 1 1 -48.85064803354357 -262.0329391015856 0 0 0 0
4069 1 1 -42.20754783006724 -261.55875736429135 0 0 0 0
4070 1 1 -36.743931883806326 -261.32785891729117 0 0 0 0
4071 1 1 -31.279909891792737 -261.20622822659783 0 0 0 0
4072 1 1 -25.569879930154457 -260.8166244733291 0 0 0 0
4073 1 1 -19.482950111926375 -259.5255656732605 0 0 0 0
4074 1 1 -13.235652529560339 -258.6524258706274 0 0 0 0
4075 1 1 -7.760208734801554 -258.1373545223014 0 0 0 0
4076 1 1 -2.5520568131583645 -257.90920160565787 0 0 0 0
4077 1 1 3.142166211194021 -257.5197094961668 0 0 0 0
4078 1 1 9.127155638217104 -256.3043978253689 0 0 0 0
4079 1 1 14.975957999860208 -255.83441437971408 0 0 0 0
4080 1 1 20.967552673009457 -255.13610954165588 0 0 0 0
4081 1 1 27.0170533824451 -254.20706250834255 0 0 0 0
4082 1 1 33.32312607508229 -253.05033787890207 0 0 0 0
4083 1 1 38.39841041353695 -252.73540166481385 0 0 0 0
4084 1 1 43.69742282397921 -252.57019833554662 0 0 0 0
4085 1 1 49.88020773940224 -252.3096778446264 0 0 0 0
4086 1 1 57.26589984440613 -252.52136415298017 0 0 0 0
4087 1 1 62.62113366713172 -252.51295031532612 0 0 0 0
4088 1 1 67.79429634383268 -251.93652256271167 0 0 0 0
4089 1 1 73.26010203230999 -250.1741183256042 0 0 0 0
4090 1 1 78.82049424875709 -250.00642275790418 0 0 0 0
4091 1 1 84.68462038315755 -249.96507718807186 0 0 0 0
4092 1 1 90.52599623818045 -249.55724692871806 0 0 0 0
4093 1 1 96.04568050388723 -249.1910271235198 0 0 0 0
4094 1 1 101.69387932507723 -248.99615689117462 0 0 0 0
4095 1 1 107.57012663953269 -248.03668938815858 0 0 0 0
4096 1 1 113.3682298922373 -247.36176120931356 0 0 0 0
4097 1 1 118.95328850048092 -247.12525183056857 0 0 0 0
4098 1 1 124.5862081690146 -246.3983973694752 0 0 0 0
4099 1 1 130.58428793899384 -245.45076146166528 0 0 0 0
4100 1 1 136.6082510993805 -244.37178759132465 0 0 0 0
4101 1 1 142.12607107890548 -244.0015491382828 0 0 0 0
4102 1 1 147.69445257520505 -243.83054164052987 0 0 0 0
4103 1 1 153.4531348412821 -243.2874579629789 0 0 0 0
4104 1 2 159.4028146630412 -242.4699207166917 0 0 0 0
4105 1 2 165.17796721021213 -241.93362503620844 0 0 0 0
4106 1 2 170.95311975738306 -241.39732935572516 0 0 0 0
4209 1 2 -126.93168207354044 -264.0151284245173 0 0 0 0
4210 1 1 -121.02811467205821 -263.45970856507245 0 0 0 0
4211 1 1 -115.2141847045007 -263.0416071005147 0 0 0 0
4212 1 1 -109.2908210601068 -261.9239098015629 0 0 0 0
4213 1 1 -103.73773107338116 -261.5184299798789 0 0 0 0
4214 1 1 -98.9354965357316 -261.29281613317556 0 0 0 0
4215 1 1 -93.44992416164816 -260.9297286964048 0 0 0 0
4216 1 1 -87.08034309392322 -259.7636027060932 0 0 0 0
4217 1 1 -80.80954305624294 -258.59306521695225 0 0 0 0
4218 1 1 -74.94940929536538 -258.12069681987646 0 0 0 0
4219 1 1 -69.2845579649868 -257.72878888029226 0 0 0 0
4220 1 1 -63.190702270902676 -256.59812581063676 0 0 0 0
4221 1 1 -57.279214466600585 -256.5120678339307 0 0 0 0
4222 1 1 -51.23346322270022 -257.3638432059745 0 0 0 0
4223 1 1 -45.33091890556562 -257.37035365188916 0 0 0 0
4224 1 1 -39.32320714017067 -256.10329369449386 0 0 0 0
4225 1 1 -34.14979231322524 -255.6828089975309 0 0 0 0
4226 1 1 -29.13499579027101 -255.6108577532144 0 0 0 0
4227 1 1 -23.391379142110992 -255.27570391157622 0 0 0 0
4228 1 1 -17.03860729429114 -254.40293543239503 0 0 0 0
4229 1 1 -10.762465666514839 -253.2845397488974 0 0 0 0
4230 1 1 -4.945584670551556 -252.81000232512105 0 0 0 0
4231 1 1 0.13037882403551299 -252.62956813046992 0 0 0 0
4232 1 1 5.197217482340934 -252.3585882671749 0 0 0 0
4233 1 1 11.383726020157198 -251.2952754842273 0 0 0 0
4234 1 1 17.51393446279617 -250.3076900427442 0 0 0 0
4235 1 1 23.654357392217193 -249.5380956160158 0 0 0 0
4236 1 1 29.550267478665546 -249.037022301706 0 0 0 0
4237 1 1 35.60292879510386 -247.78780647053762 0 0 0 0
4238 1 1 41.36980269278472 -247.49366114027416 0 0 0 0
4239 1 1 47.02588053911813 -247.6255173785466 0 0 0 0
4240 1 1 53.3758885852218 -248.27177232747445 0 0 0 0
4241 1 1 59.57455590375045 -247.3621062799181 0 0 0 0
4242 1 1 65.15667406975976 -246.96926069845705 0 0 0 0
4243 1 1 70.09817341999661 -244.879828270882 0 0 0 0
4244 1 1 75.66109468545206 -244.33403843077377 0 0 0 0
4245 1 1 81.31649440028045 -244.46457163797007 0 0 0 0
4246 1 1 87.4187666738288 -244.45805710314576 0 0 0 0
4247 1 1 93.5630861026605 -244.08176552579184 0 0 0 0
4248 1 1 98.98914939344874 -243.91719197474032 0 0 0 0
4249 1 1 103.76335416126356 -243.753189920917 0 0 0 0
4250 1 1 109.31160753511693 -243.42592553344574 0 0 0 0
4251 1 1 115.39330652430493 -242.18277036831486 0 0 0 0
4252 1 1 121.35560885546273 -241.57584950271783 0 0 0 0
4253 1 1 127.52267379743223 -240.83478659349566 0 0 0 0
4254 1 1 133.55232118623667 -240.01616227147784 0 0 0 0
4255 1 1 139.69142903487008 -238.92175190717242 0 0 0 0
4256 1 1 144.84806270539937 -238.68202876111468 0 0 0 0
4257 1 1 149.76627490980144 -238.55004256083953 0 0 0 0
4258 1 1 155.35742596977263 -238.29316607182375 0 0 0 0
4259 1 1 161.4054063278072 -237.27569894617085 0 0 0 0
4260 1 1 167.44934198247037 -236.5509628464226 0 0 0 0
4261 1 2 173.37625037934848 -236.1277530393879 0 0 0 0
4361 1 2 -136.0588565459169 -259.81814346914655 0 0 0 0
4362 1 2 -130.28370399874595 -259.28184778866324 0 0 0 0
4363 1 1 -124.20228682176857 -258.5056295379013 0 0 0 0
4364 1 1 -118.80328048901073 -258.0833909045388 0 0 0 0
4365 1 1 -113.31351925517943 -257.9206801255005 0 0 0 0
4366 1 1 -107.52269245694183 -257.2125352766541 0 0 0 0
4367 1 1 -101.62970332930324 -256.1919778214343 0 0 0 0
4368 1 1 -95.96359182485244 -255.90990459360498 0 0 0 0
4369 1 1 -90.34161418677918 -255.20220908079384 0 0 0 0
4370 1 1 -84.46706870611443 -254.40266970716783 0 0 0 0
4371 1 1 -78.37531409748985 -253.19389093249498 0 0 0 0
4372 1 1 -72.79180409621424 -252.73910971910712 0 0 0 0
4373 1 1 -67.17180539499311 -252.54300979119512 0 0 0 0
4374 1 1 -61.19441837906338 -251.90229703700908 0 0 0 0
4375 1 1 -55.01324932901977 -251.7374189907626 0 0 0 0
4376 1 1 -49.1301824631395 -252.2726687823586 0 0 0 0
4377 1 1 -43.42183772537727 -252.15902804586537 0 0 0 0
4378 1 1 -37.9697870417376 -250.2700404086613 0 0 0 0
4379 1 1 -32.62175701632231 -249.79638123571158 0 0 0 0
4380 1 1 -26.981815326139724 -249.89481282693654 0 0 0 0
4381 1 1 -20.97990649704817 -249.61239945338738 0 0 0 0
4382 1 1 -14.922318135391942 -249.23520685883213 0 0 0 0
4383 1 1 -9.00237688406665 -248.72906830937825 0 0 0 0
4384 1 1 -3.0398658488831822 -247.70305640008283 0 0 0 0
4385 1 1 2.702921482381153 -247.32952406366354 0 0 0 0
4386 1 1 8.271797490216356 -246.88539909249536 0 0 0 0
4387 1 1 14.221367233079976 -245.79759271023698 0 0 0 0
4388 1 1 20.28146674161728 -244.8127549109044 0 0 0 0
4389 1 1 25.928849192333242 -244.08973481407227 0 0 0 0
4390 1 1 31.469787885267746 -243.87915028783345 0 0 0 0
4391 1 1 37.28047721042014 -243.34745220042737 0 0 0 0
4392 1 1 43.31869983411278 -242.54219599907623 0 0 0 0
4393 1 1 49.358310424633565 -242.9376474384518 0 0 0 0
4394 1 1 55.209973491819525 -243.2773503382645 0 0 0 0
4395 1 1 60.98716955533206 -241.9122105073973 0 0 0 0
4396 1 1 66.09430874574441 -240.82899702926233 0 0 0 0
4397 1 1 71.77680984666459 -239.34112854628276 0 0 0 0
4398 1 1 77.60518743574735 -238.90041202282026 0 0 0 0
4399 1 1 83.37750611944759 -239.10101750517654 0 0 0 0
4400 1 1 89.42577208286725 -239.56330779374173 0 0 0 0
4401 1 1 95.61088799527641 -238.86361154857073 0 0 0 0
4402 1 1 101.3147346385241 -238.54412362469736 0 0 0 0
4403 1 1 106.69421935940586 -238.40929653453458 0 0 0 0
4404 1 1 111.9598765328206 -237.95562635243064 0 0 0 0
4405 1 1 118.16847991011794 -236.8498059066435 0 0 0 0
4406 1 1 124.1765501911253 -235.8805293160871 0 0 0 0
4407 1 1 129.97058704204096 -235.35548788985088 0 0 0 0
4408 1 1 135.71197753851374 -235.01194862691096 0 0 0 0
4409 1 1 141.63652506991477 -233.88007059779025 0 0 0 0
4410 1 1 147.34919909604562 -233.38593567351967 0 0 0 0
4411 1 1 152.53549330379948 -233.20345262782558 0 0 0 0
4412 1 1 157.7573685428446 -232.8074871816339 0 0 0 0
4413 1 1 163.82070591389316 -232.07640382070525 0 0 0 0
4414 1 1 169.82546845512744 -231.3921352032593 0 0 0 0
4415 1 2 175.7993810013139 -230.85817672305063 0 0 0 0
4416 1 2 181.57453354848482 -230.32188104256738 0 0 0 0
4514 1 2 -145.18603111075814 -255.62115751805985 0 0 0 0
4515 1 2 -139.4108785635872 -255.0848618375766 0 0 0 0
4516 1 1 -133.46427034306933 -254.58161004814093 0 0 0 0
4517 1 1 -127.42809890339883 -254.00136009644308 0 0 0 0
4518 1 1 -121.28876145796738 -253.00881768090156 0 0 0 0
4519 1 1 -115.87138847539572 -252.75746368638087 0 0 0 0
4520 1 1 -111.16757425274209 -252.59543888804544 0 0 0 0
4521 1 1 -105.70996272064006 -252.33838478698 0 0 0 0
4522 1 1 -99.61861996034173 -251.21132777546143 0 0 0 0
4523 1 1 -93.51490654054004 -250.40500579839735 0 0 0 0
4524 1 1 -87.26399407000423 -249.58647988302923 0 0 0 0
4525 1 1 -81.4286952840449 -248.947746472397 0 0 0 0
4526 1 1 -75.30044017241049 -247.72384316964136 0 0 0 0
4527 1 1 -69.99889108128924 -247.41521604880083 0 0 0 0
4528 1 1 -64.95366609106618 -247.19622947068154 0 0 0 0
4529 1 1 -59.113262356129454 -246.89840426001828 0 0 0 0
4530 1 1 -52.905092776291845 -246.58181562952583 0 0 0 0
4531 1 1 -47.160282315039886 -246.7334885315589 0 0 0 0
4532 1 1 -41.69385744670452 -246.15571421388077 0 0 0 0
4533 1 1 -36.42635451898658 -244.34001275392956 0 0 0 0
4534 1 1 -30.905490212655323 -244.251328529321 0 0 0 0
4535 1 1 -24.888260603039107 -244.5180875347616 0 0 0 0
4536 1 1 -18.34735759452041 -244.39104317556132 0 0 0 0
4537 1 1 -12.706806844553004 -243.9703373984755 0 0 0 0
4538 1 1 -7.20791023171027 -243.79560144632913 0 0 0 0
4539 1 1 -1.3786030546528878 -243.2451861400332 0 0 0 0
4540 1 1 4.700890626684141 -242.05627019397747 0 0 0 0
4541 1 1 10.85478586139586 -241.33400168232865 0 0 0 0
4542 1 1 17.096188792645602 -240.4339849255415 0 0 0 0
4543 1 1 23.336116398285956 -239.19057693691855 0 0 0 0
4544 1 1 28.946140085707306 -238.7640214999388 0 0 0 0
4545 1 1 33.70344891948731 -238.57606594727255 0 0 0 0
4546 1 1 39.10902500812614 -238.404622643678 0 0 0 0
4547 1 1 45.116463859281794 -237.96313739841275 0 0 0 0
4548 1 1 51.189769565382555 -237.7197474612908 0 0 0 0
4549 1 1 56.925128656955394 -237.48931492109708 0 0 0 0
4550 1 1 62.39167798676206 -235.80643220531687 0 0 0 0
4551 1 1 67.61272442800083 -235.2280921528529 0 0 0 0
4552 1 1 73.38248480443629 -234.72218928853744 0 0 0 0
4553 1 1 79.47403179984786 -233.7179591853722 0 0 0 0
4554 1 1 85.51508289496613 -234.1132962018506 0 0 0 0
4555 1 1 91.51064581691186 -234.740429526298 0 0 0 0
4556 1 1 97.64165475089118 -233.82623486292 0 0 0 0
4557 1 1 103.31956230956736 -233.12275749233942 0 0 0 0
4558 1 1 108.91741820182888 -232.8956110323982 0 0 0 0
4559 1 1 114.75823484422318 -232.39034371958616 0 0 0 0
4560 1 1 120.85214404794458 -231.39748481666513 0 0 0 0
4561 1 1 127.25260435979166 -230.33129410785637 0 0 0 0
4562 1 1 132.42642475437884 -229.97555755217945 0 0 0 0
4563 1 1 137.6150366565744 -229.80316485273943 0 0 0 0
4564 1 1 143.289272120138 -229.40739485776615 0 0 0 0
4565 1 1 149.21666002428134 -228.289003784064 0 0 0 0
4566 1 1 155.03485773047345 -227.81302814029874 0 0 0 0
4567 1 1 160.72157801824943 -227.19798257279234 0 0 0 0
4568 1 1 166.21343230135676 -226.62616358333892 0 0 0 0
4569 1 1 171.89134076659818 -226.42049173753406 0 0 0 0
4570 1 1 177.79518012024903 -225.53219940029538 0 0 0 0
4571 1 2 183.9976640779855 -225.05230373051418 0 0 0 0
4572 1 2 189.7728166251564 -224.51600805003093 0 0 0 0
4666 1 2 -154.31320558313462 -251.4241725626891 0 0 0 0
4667 1 2 -148.53805303596366 -250.88787688220586 0 0 0 0
4668 1 1 -143.14885792749388 -249.822919584369 0 0 0 0
4669 1 1 -137.31330945315005 -249.5350314461343 0 0 0 0
4670 1 1 -131.266958310142 -249.29136791873037 0 0 0 0
4671 1 1 -125.40124625251988 -249.0720589622059 0 0 0 0
4672 1 1 -119.45191620004601 -248.1054464577945 0 0 0 0
4673 1 1 -113.65282275972666 -247.45009609385534 0 0 0 0
4674 1 1 -108.28028326241737 -247.27332433781248 0 0 0 0
4675 1 1 -103.18111958311596 -246.87991259014612 0 0 0 0
4676 1 1 -97.14246189936615 -246.03705151038687 0 0 0 0
4677 1 1 -91.07838687866787 -245.14945843945966 0 0 0 0
4678 1 1 -85.0172775737768 -244.14869346207425 0 0 0 0
4679 1 1 -79.2769019214383 -243.78139916573684 0 0 0 0
4680 1 1 -73.34653596288459 -242.75512471571528 0 0 0 0
4681 1 1 -67.48787536268021 -242.09088183731512 0 0 0 0
4682 1 1 -61.876733724826266 -241.80304235255514 0 0 0 0
4683 1 1 -56.260693345044665 -241.26881484466975 0 0 0 0
4684 1 1 -50.514836775104214 -241.0647047840343 0 0 0 0
4685 1 1 -44.86746154168984 -240.878792847665 0 0 0 0
4686 1 1 -39.172724473673235 -239.47758669863418 0 0 0 0
4687 1 1 -33.363265718678676 -238.88768353644286 0 0 0 0
4688 1 1 -27.705667781475324 -239.30617696264187 0 0 0 0
4689 1 1 -21.474821754980326 -239.9261420883232 0 0 0 0
4690 1 1 -15.272263505360886 -239.06720153012694 0 0 0 0
4691 1 1 -9.621830434190278 -238.71292932693012 0 0 0 0
4692 1 1 -4.755667935369587 -238.49851949716657 0 0 0 0
4693 1 1 0.6778560844947615 -238.1456276565644 0 0 0 0
4694 1 1 7.103153825575714 -236.92337637301895 0 0 0 0
4695 1 1 13.388483404155918 -235.73614672993216 0 0 0 0
4696 1 1 19.306807641712464 -235.18891000667335 0 0 0 0
4697 1 1 25.19049861720515 -234.45589106059913 0 0 0 0
4698 1 1 31.074043469349366 -233.52087352063424 0 0 0 0
4699 1 1 36.57397046182975 -233.3217117130716 0 0 0 0
4700 1 1 41.68302777540796 -233.03577829960312 0 0 0 0
4701 1 1 47.43476043735579 -232.63653768848786 0 0 0 0
4702 1 1 53.45655086830481 -232.22730597509903 0 0 0 0
4703 1 1 59.19628263886003 -231.21629853336628 0 0 0 0
4704 1 1 65.12475195062433 -230.13517857273894 0 0 0 0
4705 1 1 70.32532984276955 -229.86079538512504 0 0 0 0
4706 1 1 75.75089600083972 -229.59546101732198 0 0 0 0
4707 1 1 82.81168576394579 -229.23020594969074 0 0 0 0
4708 1 1 89.05164542848549 -229.58373827194632 0 0 0 0
4709 1 1 94.66115656135459 -229.44023449039162 0 0 0 0
4710 1 1 100.40348568647093 -227.92438077194137 0 0 0 0
4711 1 1 105.6386306980379 -227.30508896940492 0 0 0 0
4712 1 1 111.20352128363331 -227.23869119365696 0 0 0 0
4713 1 1 117.3685946649835 -226.73017629932826 0 0 0 0
4714 1 1 123.46412424146054 -226.25074466533798 0 0 0 0
4715 1 1 129.56837209778678 -225.05465354902628 0 0 0 0
4716 1 1 135.2187132501595 -224.675400667038 0 0 0 0
4717 1 1 140.07544985010767 -224.49506105414267 0 0 0 0
4718 1 1 145.29203088199324 -224.23522526769304 0 0 0 0
4719 1 1 151.34354939240592 -223.443147849848 0 0 0 0
4720 1 1 157.47441666224455 -222.48590303659404 0 0 0 0
4721 1 1 163.66546498027995 -221.55716568834018 0 0 0 0
4722 1 1 169.0904257233922 -221.26116617773295 0 0 0 0
4723 1 1 173.95783203231085 -221.06859004843355 0 0 0 0
4724 1 1 179.6423139339061 -220.7323870978748 0 0 0 0
4725 1 1 185.8234943302109 -219.59979711363047 0 0 0 0
4726 1 2 192.1959472471218 -219.24643173369367 0 0 0 0
4727 1 2 197.97109979429277 -218.71013605321042 0 0 0 0
4820 1 2 -157.66522750834014 -246.6908919268351 0 0 0 0
4821 1 1 -152.1181443781328 -246.17744891327035 0 0 0 0
4822 1 1 -147.13100457116943 -244.42487173013484 0 0 0 0
4823 1 1 -141.3855118768101 -244.31828293584903 0 0 0 0
4824 1 1 -134.91578861434303 -244.4517323189429 0 0 0 0
4825 1 1 -128.85126957050193 -244.08017549913518 0 0 0 0
4826 1 1 -123.4508568860986 -243.86796284644458 0 0 0 0
4827 1 1 -117.78982088769973 -243.586036856656 0 0 0 0
4828 1 1 -111.84033187743063 -242.47099330842164 0 0 0 0
4829 1 1 -105.99340135657948 -241.85619217264926 0 0 0 0
4830 1 1 -100.22308440481737 -241.3083677696977 0 0 0 0
4831 1 1 -94.625385255583 -240.54746873165325 0 0 0 0